+ 0.5 0 1 tcp 40 ------- 0 0.0 1.0 0 0
- 0.5 0 1 tcp 40 ------- 0 0.0 1.0 0 0
r 0.51016 0 1 tcp 40 ------- 0 0.0 1.0 0 0
+ 0.51016 1 0 ack 40 ------- 0 1.0 0.0 0 1
- 0.51016 1 0 ack 40 ------- 0 1.0 0.0 0 1
r 0.52032 1 0 ack 40 ------- 0 1.0 0.0 0 1
+ 0.52032 0 1 tcp 1040 ------- 0 0.0 1.0 1 2
- 0.52032 0 1 tcp 1040 ------- 0 0.0 1.0 1 2
+ 0.52032 0 1 tcp 1040 ------- 0 0.0 1.0 2 3
- 0.52448 0 1 tcp 1040 ------- 0 0.0 1.0 2 3
r 0.53448 0 1 tcp 1040 ------- 0 0.0 1.0 1 2
+ 0.53448 1 0 ack 40 ------- 0 1.0 0.0 1 4
- 0.53448 1 0 ack 40 ------- 0 1.0 0.0 1 4
r 0.53864 0 1 tcp 1040 ------- 0 0.0 1.0 2 3
+ 0.53864 1 0 ack 40 ------- 0 1.0 0.0 2 5
- 0.53864 1 0 ack 40 ------- 0 1.0 0.0 2 5
r 0.54464 1 0 ack 40 ------- 0 1.0 0.0 1 4
+ 0.54464 0 1 tcp 1040 ------- 0 0.0 1.0 3 6
- 0.54464 0 1 tcp 1040 ------- 0 0.0 1.0 3 6
+ 0.54464 0 1 tcp 1040 ------- 0 0.0 1.0 4 7
r 0.5488 1 0 ack 40 ------- 0 1.0 0.0 2 5
+ 0.5488 0 1 tcp 1040 ------- 0 0.0 1.0 5 8
+ 0.5488 0 1 tcp 1040 ------- 0 0.0 1.0 6 9
- 0.5488 0 1 tcp 1040 ------- 0 0.0 1.0 4 7
- 0.55296 0 1 tcp 1040 ------- 0 0.0 1.0 5 8
- 0.55712 0 1 tcp 1040 ------- 0 0.0 1.0 6 9
r 0.5588 0 1 tcp 1040 ------- 0 0.0 1.0 3 6
+ 0.5588 1 0 ack 40 ------- 0 1.0 0.0 3 10
- 0.5588 1 0 ack 40 ------- 0 1.0 0.0 3 10
r 0.56296 0 1 tcp 1040 ------- 0 0.0 1.0 4 7
+ 0.56296 1 0 ack 40 ------- 0 1.0 0.0 4 11
- 0.56296 1 0 ack 40 ------- 0 1.0 0.0 4 11
r 0.56712 0 1 tcp 1040 ------- 0 0.0 1.0 5 8
+ 0.56712 1 0 ack 40 ------- 0 1.0 0.0 5 12
- 0.56712 1 0 ack 40 ------- 0 1.0 0.0 5 12
r 0.56896 1 0 ack 40 ------- 0 1.0 0.0 3 10
+ 0.56896 0 1 tcp 1040 ------- 0 0.0 1.0 7 13
- 0.56896 0 1 tcp 1040 ------- 0 0.0 1.0 7 13
+ 0.56896 0 1 tcp 1040 ------- 0 0.0 1.0 8 14
r 0.57128 0 1 tcp 1040 ------- 0 0.0 1.0 6 9
+ 0.57128 1 0 ack 40 ------- 0 1.0 0.0 6 15
- 0.57128 1 0 ack 40 ------- 0 1.0 0.0 6 15
r 0.57312 1 0 ack 40 ------- 0 1.0 0.0 4 11
+ 0.57312 0 1 tcp 1040 ------- 0 0.0 1.0 9 16
+ 0.57312 0 1 tcp 1040 ------- 0 0.0 1.0 10 17
- 0.57312 0 1 tcp 1040 ------- 0 0.0 1.0 8 14
r 0.57728 1 0 ack 40 ------- 0 1.0 0.0 5 12
+ 0.57728 0 1 tcp 1040 ------- 0 0.0 1.0 11 18
+ 0.57728 0 1 tcp 1040 ------- 0 0.0 1.0 12 19
- 0.57728 0 1 tcp 1040 ------- 0 0.0 1.0 9 16
r 0.58144 1 0 ack 40 ------- 0 1.0 0.0 6 15
+ 0.58144 0 1 tcp 1040 ------- 0 0.0 1.0 13 20
+ 0.58144 0 1 tcp 1040 ------- 0 0.0 1.0 14 21
- 0.58144 0 1 tcp 1040 ------- 0 0.0 1.0 10 17
r 0.58312 0 1 tcp 1040 ------- 0 0.0 1.0 7 13
+ 0.58312 1 0 ack 40 ------- 0 1.0 0.0 7 22
- 0.58312 1 0 ack 40 ------- 0 1.0 0.0 7 22
- 0.5856 0 1 tcp 1040 ------- 0 0.0 1.0 11 18
r 0.58728 0 1 tcp 1040 ------- 0 0.0 1.0 8 14
+ 0.58728 1 0 ack 40 ------- 0 1.0 0.0 8 23
- 0.58728 1 0 ack 40 ------- 0 1.0 0.0 8 23
- 0.58976 0 1 tcp 1040 ------- 0 0.0 1.0 12 19
r 0.59144 0 1 tcp 1040 ------- 0 0.0 1.0 9 16
+ 0.59144 1 0 ack 40 ------- 0 1.0 0.0 9 24
- 0.59144 1 0 ack 40 ------- 0 1.0 0.0 9 24
r 0.59328 1 0 ack 40 ------- 0 1.0 0.0 7 22
+ 0.59328 0 1 tcp 1040 ------- 0 0.0 1.0 15 25
+ 0.59328 0 1 tcp 1040 ------- 0 0.0 1.0 16 26
- 0.59392 0 1 tcp 1040 ------- 0 0.0 1.0 13 20
r 0.5956 0 1 tcp 1040 ------- 0 0.0 1.0 10 17
+ 0.5956 1 0 ack 40 ------- 0 1.0 0.0 10 27
- 0.5956 1 0 ack 40 ------- 0 1.0 0.0 10 27
r 0.59744 1 0 ack 40 ------- 0 1.0 0.0 8 23
+ 0.59744 0 1 tcp 1040 ------- 0 0.0 1.0 17 28
+ 0.59744 0 1 tcp 1040 ------- 0 0.0 1.0 18 29
- 0.59808 0 1 tcp 1040 ------- 0 0.0 1.0 14 21
r 0.59976 0 1 tcp 1040 ------- 0 0.0 1.0 11 18
+ 0.59976 1 0 ack 40 ------- 0 1.0 0.0 11 30
- 0.59976 1 0 ack 40 ------- 0 1.0 0.0 11 30
r 0.6016 1 0 ack 40 ------- 0 1.0 0.0 9 24
+ 0.6016 0 1 tcp 1040 ------- 0 0.0 1.0 19 31
+ 0.6016 0 1 tcp 1040 ------- 0 0.0 1.0 20 32
- 0.60224 0 1 tcp 1040 ------- 0 0.0 1.0 15 25
r 0.60392 0 1 tcp 1040 ------- 0 0.0 1.0 12 19
+ 0.60392 1 0 ack 40 ------- 0 1.0 0.0 12 33
- 0.60392 1 0 ack 40 ------- 0 1.0 0.0 12 33
r 0.60576 1 0 ack 40 ------- 0 1.0 0.0 10 27
+ 0.60576 0 1 tcp 1040 ------- 0 0.0 1.0 21 34
+ 0.60576 0 1 tcp 1040 ------- 0 0.0 1.0 22 35
- 0.6064 0 1 tcp 1040 ------- 0 0.0 1.0 16 26
r 0.60808 0 1 tcp 1040 ------- 0 0.0 1.0 13 20
+ 0.60808 1 0 ack 40 ------- 0 1.0 0.0 13 36
- 0.60808 1 0 ack 40 ------- 0 1.0 0.0 13 36
r 0.60992 1 0 ack 40 ------- 0 1.0 0.0 11 30
+ 0.60992 0 1 tcp 1040 ------- 0 0.0 1.0 23 37
+ 0.60992 0 1 tcp 1040 ------- 0 0.0 1.0 24 38
- 0.61056 0 1 tcp 1040 ------- 0 0.0 1.0 17 28
r 0.61224 0 1 tcp 1040 ------- 0 0.0 1.0 14 21
+ 0.61224 1 0 ack 40 ------- 0 1.0 0.0 14 39
- 0.61224 1 0 ack 40 ------- 0 1.0 0.0 14 39
r 0.61408 1 0 ack 40 ------- 0 1.0 0.0 12 33
+ 0.61408 0 1 tcp 1040 ------- 0 0.0 1.0 25 40
+ 0.61408 0 1 tcp 1040 ------- 0 0.0 1.0 26 41
- 0.61472 0 1 tcp 1040 ------- 0 0.0 1.0 18 29
r 0.6164 0 1 tcp 1040 ------- 0 0.0 1.0 15 25
+ 0.6164 1 0 ack 40 ------- 0 1.0 0.0 15 42
- 0.6164 1 0 ack 40 ------- 0 1.0 0.0 15 42
r 0.61824 1 0 ack 40 ------- 0 1.0 0.0 13 36
+ 0.61824 0 1 tcp 1040 ------- 0 0.0 1.0 27 43
+ 0.61824 0 1 tcp 1040 ------- 0 0.0 1.0 28 44
- 0.61888 0 1 tcp 1040 ------- 0 0.0 1.0 19 31
r 0.62056 0 1 tcp 1040 ------- 0 0.0 1.0 16 26
+ 0.62056 1 0 ack 40 ------- 0 1.0 0.0 16 45
- 0.62056 1 0 ack 40 ------- 0 1.0 0.0 16 45
r 0.6224 1 0 ack 40 ------- 0 1.0 0.0 14 39
+ 0.6224 0 1 tcp 1040 ------- 0 0.0 1.0 29 46
+ 0.6224 0 1 tcp 1040 ------- 0 0.0 1.0 30 47
- 0.62304 0 1 tcp 1040 ------- 0 0.0 1.0 20 32
r 0.62472 0 1 tcp 1040 ------- 0 0.0 1.0 17 28
+ 0.62472 1 0 ack 40 ------- 0 1.0 0.0 17 48
- 0.62472 1 0 ack 40 ------- 0 1.0 0.0 17 48
r 0.62656 1 0 ack 40 ------- 0 1.0 0.0 15 42
+ 0.62656 0 1 tcp 1040 ------- 0 0.0 1.0 31 49
+ 0.62656 0 1 tcp 1040 ------- 0 0.0 1.0 32 50
- 0.6272 0 1 tcp 1040 ------- 0 0.0 1.0 21 34
r 0.62888 0 1 tcp 1040 ------- 0 0.0 1.0 18 29
+ 0.62888 1 0 ack 40 ------- 0 1.0 0.0 18 51
- 0.62888 1 0 ack 40 ------- 0 1.0 0.0 18 51
r 0.63072 1 0 ack 40 ------- 0 1.0 0.0 16 45
+ 0.63072 0 1 tcp 1040 ------- 0 0.0 1.0 33 52
+ 0.63072 0 1 tcp 1040 ------- 0 0.0 1.0 34 53
- 0.63136 0 1 tcp 1040 ------- 0 0.0 1.0 22 35
r 0.63304 0 1 tcp 1040 ------- 0 0.0 1.0 19 31
+ 0.63304 1 0 ack 40 ------- 0 1.0 0.0 19 54
- 0.63304 1 0 ack 40 ------- 0 1.0 0.0 19 54
r 0.63488 1 0 ack 40 ------- 0 1.0 0.0 17 48
+ 0.63488 0 1 tcp 1040 ------- 0 0.0 1.0 35 55
+ 0.63488 0 1 tcp 1040 ------- 0 0.0 1.0 36 56
- 0.63552 0 1 tcp 1040 ------- 0 0.0 1.0 23 37
r 0.6372 0 1 tcp 1040 ------- 0 0.0 1.0 20 32
+ 0.6372 1 0 ack 40 ------- 0 1.0 0.0 20 57
- 0.6372 1 0 ack 40 ------- 0 1.0 0.0 20 57
r 0.63904 1 0 ack 40 ------- 0 1.0 0.0 18 51
+ 0.63904 0 1 tcp 1040 ------- 0 0.0 1.0 37 58
+ 0.63904 0 1 tcp 1040 ------- 0 0.0 1.0 38 59
- 0.63968 0 1 tcp 1040 ------- 0 0.0 1.0 24 38
r 0.64136 0 1 tcp 1040 ------- 0 0.0 1.0 21 34
+ 0.64136 1 0 ack 40 ------- 0 1.0 0.0 21 60
- 0.64136 1 0 ack 40 ------- 0 1.0 0.0 21 60
r 0.6432 1 0 ack 40 ------- 0 1.0 0.0 19 54
+ 0.6432 0 1 tcp 1040 ------- 0 0.0 1.0 39 61
- 0.64384 0 1 tcp 1040 ------- 0 0.0 1.0 25 40
r 0.64552 0 1 tcp 1040 ------- 0 0.0 1.0 22 35
+ 0.64552 1 0 ack 40 ------- 0 1.0 0.0 22 62
- 0.64552 1 0 ack 40 ------- 0 1.0 0.0 22 62
r 0.64736 1 0 ack 40 ------- 0 1.0 0.0 20 57
+ 0.64736 0 1 tcp 1040 ------- 0 0.0 1.0 40 63
- 0.648 0 1 tcp 1040 ------- 0 0.0 1.0 26 41
r 0.64968 0 1 tcp 1040 ------- 0 0.0 1.0 23 37
+ 0.64968 1 0 ack 40 ------- 0 1.0 0.0 23 64
- 0.64968 1 0 ack 40 ------- 0 1.0 0.0 23 64
r 0.65152 1 0 ack 40 ------- 0 1.0 0.0 21 60
+ 0.65152 0 1 tcp 1040 ------- 0 0.0 1.0 41 65
- 0.65216 0 1 tcp 1040 ------- 0 0.0 1.0 27 43
r 0.65384 0 1 tcp 1040 ------- 0 0.0 1.0 24 38
+ 0.65384 1 0 ack 40 ------- 0 1.0 0.0 24 66
- 0.65384 1 0 ack 40 ------- 0 1.0 0.0 24 66
r 0.65568 1 0 ack 40 ------- 0 1.0 0.0 22 62
+ 0.65568 0 1 tcp 1040 ------- 0 0.0 1.0 42 67
- 0.65632 0 1 tcp 1040 ------- 0 0.0 1.0 28 44
r 0.658 0 1 tcp 1040 ------- 0 0.0 1.0 25 40
+ 0.658 1 0 ack 40 ------- 0 1.0 0.0 25 68
- 0.658 1 0 ack 40 ------- 0 1.0 0.0 25 68
r 0.65984 1 0 ack 40 ------- 0 1.0 0.0 23 64
+ 0.65984 0 1 tcp 1040 ------- 0 0.0 1.0 43 69
- 0.66048 0 1 tcp 1040 ------- 0 0.0 1.0 29 46
r 0.66216 0 1 tcp 1040 ------- 0 0.0 1.0 26 41
+ 0.66216 1 0 ack 40 ------- 0 1.0 0.0 26 70
- 0.66216 1 0 ack 40 ------- 0 1.0 0.0 26 70
r 0.664 1 0 ack 40 ------- 0 1.0 0.0 24 66
+ 0.664 0 1 tcp 1040 ------- 0 0.0 1.0 44 71
- 0.66464 0 1 tcp 1040 ------- 0 0.0 1.0 30 47
r 0.66632 0 1 tcp 1040 ------- 0 0.0 1.0 27 43
+ 0.66632 1 0 ack 40 ------- 0 1.0 0.0 27 72
- 0.66632 1 0 ack 40 ------- 0 1.0 0.0 27 72
r 0.66816 1 0 ack 40 ------- 0 1.0 0.0 25 68
+ 0.66816 0 1 tcp 1040 ------- 0 0.0 1.0 45 73
- 0.6688 0 1 tcp 1040 ------- 0 0.0 1.0 31 49
r 0.67048 0 1 tcp 1040 ------- 0 0.0 1.0 28 44
+ 0.67048 1 0 ack 40 ------- 0 1.0 0.0 28 74
- 0.67048 1 0 ack 40 ------- 0 1.0 0.0 28 74
r 0.67232 1 0 ack 40 ------- 0 1.0 0.0 26 70
+ 0.67232 0 1 tcp 1040 ------- 0 0.0 1.0 46 75
- 0.67296 0 1 tcp 1040 ------- 0 0.0 1.0 32 50
r 0.67464 0 1 tcp 1040 ------- 0 0.0 1.0 29 46
+ 0.67464 1 0 ack 40 ------- 0 1.0 0.0 29 76
- 0.67464 1 0 ack 40 ------- 0 1.0 0.0 29 76
r 0.67648 1 0 ack 40 ------- 0 1.0 0.0 27 72
+ 0.67648 0 1 tcp 1040 ------- 0 0.0 1.0 47 77
- 0.67712 0 1 tcp 1040 ------- 0 0.0 1.0 33 52
r 0.6788 0 1 tcp 1040 ------- 0 0.0 1.0 30 47
+ 0.6788 1 0 ack 40 ------- 0 1.0 0.0 30 78
- 0.6788 1 0 ack 40 ------- 0 1.0 0.0 30 78
r 0.68064 1 0 ack 40 ------- 0 1.0 0.0 28 74
+ 0.68064 0 1 tcp 1040 ------- 0 0.0 1.0 48 79
- 0.68128 0 1 tcp 1040 ------- 0 0.0 1.0 34 53
r 0.68296 0 1 tcp 1040 ------- 0 0.0 1.0 31 49
+ 0.68296 1 0 ack 40 ------- 0 1.0 0.0 31 80
- 0.68296 1 0 ack 40 ------- 0 1.0 0.0 31 80
r 0.6848 1 0 ack 40 ------- 0 1.0 0.0 29 76
+ 0.6848 0 1 tcp 1040 ------- 0 0.0 1.0 49 81
- 0.68544 0 1 tcp 1040 ------- 0 0.0 1.0 35 55
r 0.68712 0 1 tcp 1040 ------- 0 0.0 1.0 32 50
+ 0.68712 1 0 ack 40 ------- 0 1.0 0.0 32 82
- 0.68712 1 0 ack 40 ------- 0 1.0 0.0 32 82
r 0.68896 1 0 ack 40 ------- 0 1.0 0.0 30 78
+ 0.68896 0 1 tcp 1040 ------- 0 0.0 1.0 50 83
- 0.6896 0 1 tcp 1040 ------- 0 0.0 1.0 36 56
r 0.69128 0 1 tcp 1040 ------- 0 0.0 1.0 33 52
+ 0.69128 1 0 ack 40 ------- 0 1.0 0.0 33 84
- 0.69128 1 0 ack 40 ------- 0 1.0 0.0 33 84
r 0.69312 1 0 ack 40 ------- 0 1.0 0.0 31 80
+ 0.69312 0 1 tcp 1040 ------- 0 0.0 1.0 51 85
- 0.69376 0 1 tcp 1040 ------- 0 0.0 1.0 37 58
r 0.69544 0 1 tcp 1040 ------- 0 0.0 1.0 34 53
+ 0.69544 1 0 ack 40 ------- 0 1.0 0.0 34 86
- 0.69544 1 0 ack 40 ------- 0 1.0 0.0 34 86
r 0.69728 1 0 ack 40 ------- 0 1.0 0.0 32 82
+ 0.69728 0 1 tcp 1040 ------- 0 0.0 1.0 52 87
- 0.69792 0 1 tcp 1040 ------- 0 0.0 1.0 38 59
r 0.6996 0 1 tcp 1040 ------- 0 0.0 1.0 35 55
+ 0.6996 1 0 ack 40 ------- 0 1.0 0.0 35 88
- 0.6996 1 0 ack 40 ------- 0 1.0 0.0 35 88
r 0.70144 1 0 ack 40 ------- 0 1.0 0.0 33 84
+ 0.70144 0 1 tcp 1040 ------- 0 0.0 1.0 53 89
- 0.70208 0 1 tcp 1040 ------- 0 0.0 1.0 39 61
r 0.70376 0 1 tcp 1040 ------- 0 0.0 1.0 36 56
+ 0.70376 1 0 ack 40 ------- 0 1.0 0.0 36 90
- 0.70376 1 0 ack 40 ------- 0 1.0 0.0 36 90
r 0.7056 1 0 ack 40 ------- 0 1.0 0.0 34 86
+ 0.7056 0 1 tcp 1040 ------- 0 0.0 1.0 54 91
- 0.70624 0 1 tcp 1040 ------- 0 0.0 1.0 40 63
r 0.70792 0 1 tcp 1040 ------- 0 0.0 1.0 37 58
+ 0.70792 1 0 ack 40 ------- 0 1.0 0.0 37 92
- 0.70792 1 0 ack 40 ------- 0 1.0 0.0 37 92
r 0.70976 1 0 ack 40 ------- 0 1.0 0.0 35 88
+ 0.70976 0 1 tcp 1040 ------- 0 0.0 1.0 55 93
- 0.7104 0 1 tcp 1040 ------- 0 0.0 1.0 41 65
r 0.71208 0 1 tcp 1040 ------- 0 0.0 1.0 38 59
+ 0.71208 1 0 ack 40 ------- 0 1.0 0.0 38 94
- 0.71208 1 0 ack 40 ------- 0 1.0 0.0 38 94
r 0.71392 1 0 ack 40 ------- 0 1.0 0.0 36 90
+ 0.71392 0 1 tcp 1040 ------- 0 0.0 1.0 56 95
- 0.71456 0 1 tcp 1040 ------- 0 0.0 1.0 42 67
r 0.71624 0 1 tcp 1040 ------- 0 0.0 1.0 39 61
+ 0.71624 1 0 ack 40 ------- 0 1.0 0.0 39 96
- 0.71624 1 0 ack 40 ------- 0 1.0 0.0 39 96
r 0.71808 1 0 ack 40 ------- 0 1.0 0.0 37 92
+ 0.71808 0 1 tcp 1040 ------- 0 0.0 1.0 57 97
- 0.71872 0 1 tcp 1040 ------- 0 0.0 1.0 43 69
r 0.7204 0 1 tcp 1040 ------- 0 0.0 1.0 40 63
+ 0.7204 1 0 ack 40 ------- 0 1.0 0.0 40 98
- 0.7204 1 0 ack 40 ------- 0 1.0 0.0 40 98
r 0.72224 1 0 ack 40 ------- 0 1.0 0.0 38 94
+ 0.72224 0 1 tcp 1040 ------- 0 0.0 1.0 58 99
- 0.72288 0 1 tcp 1040 ------- 0 0.0 1.0 44 71
r 0.72456 0 1 tcp 1040 ------- 0 0.0 1.0 41 65
+ 0.72456 1 0 ack 40 ------- 0 1.0 0.0 41 100
- 0.72456 1 0 ack 40 ------- 0 1.0 0.0 41 100
r 0.7264 1 0 ack 40 ------- 0 1.0 0.0 39 96
+ 0.7264 0 1 tcp 1040 ------- 0 0.0 1.0 59 101
- 0.72704 0 1 tcp 1040 ------- 0 0.0 1.0 45 73
r 0.72872 0 1 tcp 1040 ------- 0 0.0 1.0 42 67
+ 0.72872 1 0 ack 40 ------- 0 1.0 0.0 42 102
- 0.72872 1 0 ack 40 ------- 0 1.0 0.0 42 102
r 0.73056 1 0 ack 40 ------- 0 1.0 0.0 40 98
+ 0.73056 0 1 tcp 1040 ------- 0 0.0 1.0 60 103
- 0.7312 0 1 tcp 1040 ------- 0 0.0 1.0 46 75
r 0.73288 0 1 tcp 1040 ------- 0 0.0 1.0 43 69
+ 0.73288 1 0 ack 40 ------- 0 1.0 0.0 43 104
- 0.73288 1 0 ack 40 ------- 0 1.0 0.0 43 104
r 0.73472 1 0 ack 40 ------- 0 1.0 0.0 41 100
+ 0.73472 0 1 tcp 1040 ------- 0 0.0 1.0 61 105
- 0.73536 0 1 tcp 1040 ------- 0 0.0 1.0 47 77
r 0.73704 0 1 tcp 1040 ------- 0 0.0 1.0 44 71
+ 0.73704 1 0 ack 40 ------- 0 1.0 0.0 44 106
- 0.73704 1 0 ack 40 ------- 0 1.0 0.0 44 106
r 0.73888 1 0 ack 40 ------- 0 1.0 0.0 42 102
+ 0.73888 0 1 tcp 1040 ------- 0 0.0 1.0 62 107
- 0.73952 0 1 tcp 1040 ------- 0 0.0 1.0 48 79
r 0.7412 0 1 tcp 1040 ------- 0 0.0 1.0 45 73
+ 0.7412 1 0 ack 40 ------- 0 1.0 0.0 45 108
- 0.7412 1 0 ack 40 ------- 0 1.0 0.0 45 108
r 0.74304 1 0 ack 40 ------- 0 1.0 0.0 43 104
+ 0.74304 0 1 tcp 1040 ------- 0 0.0 1.0 63 109
- 0.74368 0 1 tcp 1040 ------- 0 0.0 1.0 49 81
r 0.74536 0 1 tcp 1040 ------- 0 0.0 1.0 46 75
+ 0.74536 1 0 ack 40 ------- 0 1.0 0.0 46 110
- 0.74536 1 0 ack 40 ------- 0 1.0 0.0 46 110
r 0.7472 1 0 ack 40 ------- 0 1.0 0.0 44 106
+ 0.7472 0 1 tcp 1040 ------- 0 0.0 1.0 64 111
- 0.74784 0 1 tcp 1040 ------- 0 0.0 1.0 50 83
r 0.74952 0 1 tcp 1040 ------- 0 0.0 1.0 47 77
+ 0.74952 1 0 ack 40 ------- 0 1.0 0.0 47 112
- 0.74952 1 0 ack 40 ------- 0 1.0 0.0 47 112
r 0.75136 1 0 ack 40 ------- 0 1.0 0.0 45 108
+ 0.75136 0 1 tcp 1040 ------- 0 0.0 1.0 65 113
- 0.752 0 1 tcp 1040 ------- 0 0.0 1.0 51 85
r 0.75368 0 1 tcp 1040 ------- 0 0.0 1.0 48 79
+ 0.75368 1 0 ack 40 ------- 0 1.0 0.0 48 114
- 0.75368 1 0 ack 40 ------- 0 1.0 0.0 48 114
r 0.75552 1 0 ack 40 ------- 0 1.0 0.0 46 110
+ 0.75552 0 1 tcp 1040 ------- 0 0.0 1.0 66 115
- 0.75616 0 1 tcp 1040 ------- 0 0.0 1.0 52 87
r 0.75784 0 1 tcp 1040 ------- 0 0.0 1.0 49 81
+ 0.75784 1 0 ack 40 ------- 0 1.0 0.0 49 116
- 0.75784 1 0 ack 40 ------- 0 1.0 0.0 49 116
r 0.75968 1 0 ack 40 ------- 0 1.0 0.0 47 112
+ 0.75968 0 1 tcp 1040 ------- 0 0.0 1.0 67 117
- 0.76032 0 1 tcp 1040 ------- 0 0.0 1.0 53 89
r 0.762 0 1 tcp 1040 ------- 0 0.0 1.0 50 83
+ 0.762 1 0 ack 40 ------- 0 1.0 0.0 50 118
- 0.762 1 0 ack 40 ------- 0 1.0 0.0 50 118
r 0.76384 1 0 ack 40 ------- 0 1.0 0.0 48 114
+ 0.76384 0 1 tcp 1040 ------- 0 0.0 1.0 68 119
- 0.76448 0 1 tcp 1040 ------- 0 0.0 1.0 54 91
r 0.76616 0 1 tcp 1040 ------- 0 0.0 1.0 51 85
+ 0.76616 1 0 ack 40 ------- 0 1.0 0.0 51 120
- 0.76616 1 0 ack 40 ------- 0 1.0 0.0 51 120
r 0.768 1 0 ack 40 ------- 0 1.0 0.0 49 116
+ 0.768 0 1 tcp 1040 ------- 0 0.0 1.0 69 121
- 0.76864 0 1 tcp 1040 ------- 0 0.0 1.0 55 93
r 0.77032 0 1 tcp 1040 ------- 0 0.0 1.0 52 87
+ 0.77032 1 0 ack 40 ------- 0 1.0 0.0 52 122
- 0.77032 1 0 ack 40 ------- 0 1.0 0.0 52 122
r 0.77216 1 0 ack 40 ------- 0 1.0 0.0 50 118
+ 0.77216 0 1 tcp 1040 ------- 0 0.0 1.0 70 123
- 0.7728 0 1 tcp 1040 ------- 0 0.0 1.0 56 95
r 0.77448 0 1 tcp 1040 ------- 0 0.0 1.0 53 89
+ 0.77448 1 0 ack 40 ------- 0 1.0 0.0 53 124
- 0.77448 1 0 ack 40 ------- 0 1.0 0.0 53 124
r 0.77632 1 0 ack 40 ------- 0 1.0 0.0 51 120
+ 0.77632 0 1 tcp 1040 ------- 0 0.0 1.0 71 125
- 0.77696 0 1 tcp 1040 ------- 0 0.0 1.0 57 97
r 0.77864 0 1 tcp 1040 ------- 0 0.0 1.0 54 91
+ 0.77864 1 0 ack 40 ------- 0 1.0 0.0 54 126
- 0.77864 1 0 ack 40 ------- 0 1.0 0.0 54 126
r 0.78048 1 0 ack 40 ------- 0 1.0 0.0 52 122
+ 0.78048 0 1 tcp 1040 ------- 0 0.0 1.0 72 127
- 0.78112 0 1 tcp 1040 ------- 0 0.0 1.0 58 99
r 0.7828 0 1 tcp 1040 ------- 0 0.0 1.0 55 93
+ 0.7828 1 0 ack 40 ------- 0 1.0 0.0 55 128
- 0.7828 1 0 ack 40 ------- 0 1.0 0.0 55 128
r 0.78464 1 0 ack 40 ------- 0 1.0 0.0 53 124
+ 0.78464 0 1 tcp 1040 ------- 0 0.0 1.0 73 129
- 0.78528 0 1 tcp 1040 ------- 0 0.0 1.0 59 101
r 0.78696 0 1 tcp 1040 ------- 0 0.0 1.0 56 95
+ 0.78696 1 0 ack 40 ------- 0 1.0 0.0 56 130
- 0.78696 1 0 ack 40 ------- 0 1.0 0.0 56 130
r 0.7888 1 0 ack 40 ------- 0 1.0 0.0 54 126
+ 0.7888 0 1 tcp 1040 ------- 0 0.0 1.0 74 131
- 0.78944 0 1 tcp 1040 ------- 0 0.0 1.0 60 103
r 0.79112 0 1 tcp 1040 ------- 0 0.0 1.0 57 97
+ 0.79112 1 0 ack 40 ------- 0 1.0 0.0 57 132
- 0.79112 1 0 ack 40 ------- 0 1.0 0.0 57 132
r 0.79296 1 0 ack 40 ------- 0 1.0 0.0 55 128
+ 0.79296 0 1 tcp 1040 ------- 0 0.0 1.0 75 133
- 0.7936 0 1 tcp 1040 ------- 0 0.0 1.0 61 105
r 0.79528 0 1 tcp 1040 ------- 0 0.0 1.0 58 99
+ 0.79528 1 0 ack 40 ------- 0 1.0 0.0 58 134
- 0.79528 1 0 ack 40 ------- 0 1.0 0.0 58 134
r 0.79712 1 0 ack 40 ------- 0 1.0 0.0 56 130
+ 0.79712 0 1 tcp 1040 ------- 0 0.0 1.0 76 135
- 0.79776 0 1 tcp 1040 ------- 0 0.0 1.0 62 107
r 0.79944 0 1 tcp 1040 ------- 0 0.0 1.0 59 101
+ 0.79944 1 0 ack 40 ------- 0 1.0 0.0 59 136
- 0.79944 1 0 ack 40 ------- 0 1.0 0.0 59 136
r 0.80128 1 0 ack 40 ------- 0 1.0 0.0 57 132
+ 0.80128 0 1 tcp 1040 ------- 0 0.0 1.0 77 137
- 0.80192 0 1 tcp 1040 ------- 0 0.0 1.0 63 109
r 0.8036 0 1 tcp 1040 ------- 0 0.0 1.0 60 103
+ 0.8036 1 0 ack 40 ------- 0 1.0 0.0 60 138
- 0.8036 1 0 ack 40 ------- 0 1.0 0.0 60 138
r 0.80544 1 0 ack 40 ------- 0 1.0 0.0 58 134
+ 0.80544 0 1 tcp 1040 ------- 0 0.0 1.0 78 139
- 0.80608 0 1 tcp 1040 ------- 0 0.0 1.0 64 111
r 0.80776 0 1 tcp 1040 ------- 0 0.0 1.0 61 105
+ 0.80776 1 0 ack 40 ------- 0 1.0 0.0 61 140
- 0.80776 1 0 ack 40 ------- 0 1.0 0.0 61 140
r 0.8096 1 0 ack 40 ------- 0 1.0 0.0 59 136
+ 0.8096 0 1 tcp 1040 ------- 0 0.0 1.0 79 141
- 0.81024 0 1 tcp 1040 ------- 0 0.0 1.0 65 113
r 0.81192 0 1 tcp 1040 ------- 0 0.0 1.0 62 107
+ 0.81192 1 0 ack 40 ------- 0 1.0 0.0 62 142
- 0.81192 1 0 ack 40 ------- 0 1.0 0.0 62 142
r 0.81376 1 0 ack 40 ------- 0 1.0 0.0 60 138
+ 0.81376 0 1 tcp 1040 ------- 0 0.0 1.0 80 143
- 0.8144 0 1 tcp 1040 ------- 0 0.0 1.0 66 115
r 0.81608 0 1 tcp 1040 ------- 0 0.0 1.0 63 109
+ 0.81608 1 0 ack 40 ------- 0 1.0 0.0 63 144
- 0.81608 1 0 ack 40 ------- 0 1.0 0.0 63 144
r 0.81792 1 0 ack 40 ------- 0 1.0 0.0 61 140
+ 0.81792 0 1 tcp 1040 ------- 0 0.0 1.0 81 145
- 0.81856 0 1 tcp 1040 ------- 0 0.0 1.0 67 117
r 0.82024 0 1 tcp 1040 ------- 0 0.0 1.0 64 111
+ 0.82024 1 0 ack 40 ------- 0 1.0 0.0 64 146
- 0.82024 1 0 ack 40 ------- 0 1.0 0.0 64 146
r 0.82208 1 0 ack 40 ------- 0 1.0 0.0 62 142
+ 0.82208 0 1 tcp 1040 ------- 0 0.0 1.0 82 147
- 0.82272 0 1 tcp 1040 ------- 0 0.0 1.0 68 119
r 0.8244 0 1 tcp 1040 ------- 0 0.0 1.0 65 113
+ 0.8244 1 0 ack 40 ------- 0 1.0 0.0 65 148
- 0.8244 1 0 ack 40 ------- 0 1.0 0.0 65 148
r 0.82624 1 0 ack 40 ------- 0 1.0 0.0 63 144
+ 0.82624 0 1 tcp 1040 ------- 0 0.0 1.0 83 149
- 0.82688 0 1 tcp 1040 ------- 0 0.0 1.0 69 121
r 0.82856 0 1 tcp 1040 ------- 0 0.0 1.0 66 115
+ 0.82856 1 0 ack 40 ------- 0 1.0 0.0 66 150
- 0.82856 1 0 ack 40 ------- 0 1.0 0.0 66 150
r 0.8304 1 0 ack 40 ------- 0 1.0 0.0 64 146
+ 0.8304 0 1 tcp 1040 ------- 0 0.0 1.0 84 151
- 0.83104 0 1 tcp 1040 ------- 0 0.0 1.0 70 123
r 0.83272 0 1 tcp 1040 ------- 0 0.0 1.0 67 117
+ 0.83272 1 0 ack 40 ------- 0 1.0 0.0 67 152
- 0.83272 1 0 ack 40 ------- 0 1.0 0.0 67 152
r 0.83456 1 0 ack 40 ------- 0 1.0 0.0 65 148
+ 0.83456 0 1 tcp 1040 ------- 0 0.0 1.0 85 153
- 0.8352 0 1 tcp 1040 ------- 0 0.0 1.0 71 125
r 0.83688 0 1 tcp 1040 ------- 0 0.0 1.0 68 119
+ 0.83688 1 0 ack 40 ------- 0 1.0 0.0 68 154
- 0.83688 1 0 ack 40 ------- 0 1.0 0.0 68 154
r 0.83872 1 0 ack 40 ------- 0 1.0 0.0 66 150
+ 0.83872 0 1 tcp 1040 ------- 0 0.0 1.0 86 155
- 0.83936 0 1 tcp 1040 ------- 0 0.0 1.0 72 127
r 0.84104 0 1 tcp 1040 ------- 0 0.0 1.0 69 121
+ 0.84104 1 0 ack 40 ------- 0 1.0 0.0 69 156
- 0.84104 1 0 ack 40 ------- 0 1.0 0.0 69 156
r 0.84288 1 0 ack 40 ------- 0 1.0 0.0 67 152
+ 0.84288 0 1 tcp 1040 ------- 0 0.0 1.0 87 157
- 0.84352 0 1 tcp 1040 ------- 0 0.0 1.0 73 129
r 0.8452 0 1 tcp 1040 ------- 0 0.0 1.0 70 123
+ 0.8452 1 0 ack 40 ------- 0 1.0 0.0 70 158
- 0.8452 1 0 ack 40 ------- 0 1.0 0.0 70 158
r 0.84704 1 0 ack 40 ------- 0 1.0 0.0 68 154
+ 0.84704 0 1 tcp 1040 ------- 0 0.0 1.0 88 159
- 0.84768 0 1 tcp 1040 ------- 0 0.0 1.0 74 131
r 0.84936 0 1 tcp 1040 ------- 0 0.0 1.0 71 125
+ 0.84936 1 0 ack 40 ------- 0 1.0 0.0 71 160
- 0.84936 1 0 ack 40 ------- 0 1.0 0.0 71 160
r 0.8512 1 0 ack 40 ------- 0 1.0 0.0 69 156
+ 0.8512 0 1 tcp 1040 ------- 0 0.0 1.0 89 161
- 0.85184 0 1 tcp 1040 ------- 0 0.0 1.0 75 133
r 0.85352 0 1 tcp 1040 ------- 0 0.0 1.0 72 127
+ 0.85352 1 0 ack 40 ------- 0 1.0 0.0 72 162
- 0.85352 1 0 ack 40 ------- 0 1.0 0.0 72 162
r 0.85536 1 0 ack 40 ------- 0 1.0 0.0 70 158
+ 0.85536 0 1 tcp 1040 ------- 0 0.0 1.0 90 163
- 0.856 0 1 tcp 1040 ------- 0 0.0 1.0 76 135
r 0.85768 0 1 tcp 1040 ------- 0 0.0 1.0 73 129
+ 0.85768 1 0 ack 40 ------- 0 1.0 0.0 73 164
- 0.85768 1 0 ack 40 ------- 0 1.0 0.0 73 164
r 0.85952 1 0 ack 40 ------- 0 1.0 0.0 71 160
+ 0.85952 0 1 tcp 1040 ------- 0 0.0 1.0 91 165
- 0.86016 0 1 tcp 1040 ------- 0 0.0 1.0 77 137
r 0.86184 0 1 tcp 1040 ------- 0 0.0 1.0 74 131
+ 0.86184 1 0 ack 40 ------- 0 1.0 0.0 74 166
- 0.86184 1 0 ack 40 ------- 0 1.0 0.0 74 166
r 0.86368 1 0 ack 40 ------- 0 1.0 0.0 72 162
+ 0.86368 0 1 tcp 1040 ------- 0 0.0 1.0 92 167
- 0.86432 0 1 tcp 1040 ------- 0 0.0 1.0 78 139
r 0.866 0 1 tcp 1040 ------- 0 0.0 1.0 75 133
+ 0.866 1 0 ack 40 ------- 0 1.0 0.0 75 168
- 0.866 1 0 ack 40 ------- 0 1.0 0.0 75 168
r 0.86784 1 0 ack 40 ------- 0 1.0 0.0 73 164
+ 0.86784 0 1 tcp 1040 ------- 0 0.0 1.0 93 169
- 0.86848 0 1 tcp 1040 ------- 0 0.0 1.0 79 141
r 0.87016 0 1 tcp 1040 ------- 0 0.0 1.0 76 135
+ 0.87016 1 0 ack 40 ------- 0 1.0 0.0 76 170
- 0.87016 1 0 ack 40 ------- 0 1.0 0.0 76 170
r 0.872 1 0 ack 40 ------- 0 1.0 0.0 74 166
+ 0.872 0 1 tcp 1040 ------- 0 0.0 1.0 94 171
- 0.87264 0 1 tcp 1040 ------- 0 0.0 1.0 80 143
r 0.87432 0 1 tcp 1040 ------- 0 0.0 1.0 77 137
+ 0.87432 1 0 ack 40 ------- 0 1.0 0.0 77 172
- 0.87432 1 0 ack 40 ------- 0 1.0 0.0 77 172
r 0.87616 1 0 ack 40 ------- 0 1.0 0.0 75 168
+ 0.87616 0 1 tcp 1040 ------- 0 0.0 1.0 95 173
- 0.8768 0 1 tcp 1040 ------- 0 0.0 1.0 81 145
r 0.87848 0 1 tcp 1040 ------- 0 0.0 1.0 78 139
+ 0.87848 1 0 ack 40 ------- 0 1.0 0.0 78 174
- 0.87848 1 0 ack 40 ------- 0 1.0 0.0 78 174
r 0.88032 1 0 ack 40 ------- 0 1.0 0.0 76 170
+ 0.88032 0 1 tcp 1040 ------- 0 0.0 1.0 96 175
- 0.88096 0 1 tcp 1040 ------- 0 0.0 1.0 82 147
r 0.88264 0 1 tcp 1040 ------- 0 0.0 1.0 79 141
+ 0.88264 1 0 ack 40 ------- 0 1.0 0.0 79 176
- 0.88264 1 0 ack 40 ------- 0 1.0 0.0 79 176
r 0.88448 1 0 ack 40 ------- 0 1.0 0.0 77 172
+ 0.88448 0 1 tcp 1040 ------- 0 0.0 1.0 97 177
- 0.88512 0 1 tcp 1040 ------- 0 0.0 1.0 83 149
r 0.8868 0 1 tcp 1040 ------- 0 0.0 1.0 80 143
+ 0.8868 1 0 ack 40 ------- 0 1.0 0.0 80 178
- 0.8868 1 0 ack 40 ------- 0 1.0 0.0 80 178
r 0.88864 1 0 ack 40 ------- 0 1.0 0.0 78 174
+ 0.88864 0 1 tcp 1040 ------- 0 0.0 1.0 98 179
- 0.88928 0 1 tcp 1040 ------- 0 0.0 1.0 84 151
r 0.89096 0 1 tcp 1040 ------- 0 0.0 1.0 81 145
+ 0.89096 1 0 ack 40 ------- 0 1.0 0.0 81 180
- 0.89096 1 0 ack 40 ------- 0 1.0 0.0 81 180
r 0.8928 1 0 ack 40 ------- 0 1.0 0.0 79 176
+ 0.8928 0 1 tcp 1040 ------- 0 0.0 1.0 99 181
- 0.89344 0 1 tcp 1040 ------- 0 0.0 1.0 85 153
r 0.89512 0 1 tcp 1040 ------- 0 0.0 1.0 82 147
+ 0.89512 1 0 ack 40 ------- 0 1.0 0.0 82 182
- 0.89512 1 0 ack 40 ------- 0 1.0 0.0 82 182
r 0.89696 1 0 ack 40 ------- 0 1.0 0.0 80 178
+ 0.89696 0 1 tcp 1040 ------- 0 0.0 1.0 100 183
- 0.8976 0 1 tcp 1040 ------- 0 0.0 1.0 86 155
r 0.89928 0 1 tcp 1040 ------- 0 0.0 1.0 83 149
+ 0.89928 1 0 ack 40 ------- 0 1.0 0.0 83 184
- 0.89928 1 0 ack 40 ------- 0 1.0 0.0 83 184
r 0.90112 1 0 ack 40 ------- 0 1.0 0.0 81 180
+ 0.90112 0 1 tcp 1040 ------- 0 0.0 1.0 101 185
- 0.90176 0 1 tcp 1040 ------- 0 0.0 1.0 87 157
r 0.90344 0 1 tcp 1040 ------- 0 0.0 1.0 84 151
+ 0.90344 1 0 ack 40 ------- 0 1.0 0.0 84 186
- 0.90344 1 0 ack 40 ------- 0 1.0 0.0 84 186
r 0.90528 1 0 ack 40 ------- 0 1.0 0.0 82 182
+ 0.90528 0 1 tcp 1040 ------- 0 0.0 1.0 102 187
- 0.90592 0 1 tcp 1040 ------- 0 0.0 1.0 88 159
r 0.9076 0 1 tcp 1040 ------- 0 0.0 1.0 85 153
+ 0.9076 1 0 ack 40 ------- 0 1.0 0.0 85 188
- 0.9076 1 0 ack 40 ------- 0 1.0 0.0 85 188
r 0.90944 1 0 ack 40 ------- 0 1.0 0.0 83 184
+ 0.90944 0 1 tcp 1040 ------- 0 0.0 1.0 103 189
- 0.91008 0 1 tcp 1040 ------- 0 0.0 1.0 89 161
r 0.91176 0 1 tcp 1040 ------- 0 0.0 1.0 86 155
+ 0.91176 1 0 ack 40 ------- 0 1.0 0.0 86 190
- 0.91176 1 0 ack 40 ------- 0 1.0 0.0 86 190
r 0.9136 1 0 ack 40 ------- 0 1.0 0.0 84 186
+ 0.9136 0 1 tcp 1040 ------- 0 0.0 1.0 104 191
- 0.91424 0 1 tcp 1040 ------- 0 0.0 1.0 90 163
r 0.91592 0 1 tcp 1040 ------- 0 0.0 1.0 87 157
+ 0.91592 1 0 ack 40 ------- 0 1.0 0.0 87 192
- 0.91592 1 0 ack 40 ------- 0 1.0 0.0 87 192
r 0.91776 1 0 ack 40 ------- 0 1.0 0.0 85 188
+ 0.91776 0 1 tcp 1040 ------- 0 0.0 1.0 105 193
- 0.9184 0 1 tcp 1040 ------- 0 0.0 1.0 91 165
r 0.92008 0 1 tcp 1040 ------- 0 0.0 1.0 88 159
+ 0.92008 1 0 ack 40 ------- 0 1.0 0.0 88 194
- 0.92008 1 0 ack 40 ------- 0 1.0 0.0 88 194
r 0.92192 1 0 ack 40 ------- 0 1.0 0.0 86 190
+ 0.92192 0 1 tcp 1040 ------- 0 0.0 1.0 106 195
- 0.92256 0 1 tcp 1040 ------- 0 0.0 1.0 92 167
r 0.92424 0 1 tcp 1040 ------- 0 0.0 1.0 89 161
+ 0.92424 1 0 ack 40 ------- 0 1.0 0.0 89 196
- 0.92424 1 0 ack 40 ------- 0 1.0 0.0 89 196
r 0.92608 1 0 ack 40 ------- 0 1.0 0.0 87 192
+ 0.92608 0 1 tcp 1040 ------- 0 0.0 1.0 107 197
- 0.92672 0 1 tcp 1040 ------- 0 0.0 1.0 93 169
r 0.9284 0 1 tcp 1040 ------- 0 0.0 1.0 90 163
+ 0.9284 1 0 ack 40 ------- 0 1.0 0.0 90 198
- 0.9284 1 0 ack 40 ------- 0 1.0 0.0 90 198
r 0.93024 1 0 ack 40 ------- 0 1.0 0.0 88 194
+ 0.93024 0 1 tcp 1040 ------- 0 0.0 1.0 108 199
- 0.93088 0 1 tcp 1040 ------- 0 0.0 1.0 94 171
r 0.93256 0 1 tcp 1040 ------- 0 0.0 1.0 91 165
+ 0.93256 1 0 ack 40 ------- 0 1.0 0.0 91 200
- 0.93256 1 0 ack 40 ------- 0 1.0 0.0 91 200
r 0.9344 1 0 ack 40 ------- 0 1.0 0.0 89 196
+ 0.9344 0 1 tcp 1040 ------- 0 0.0 1.0 109 201
- 0.93504 0 1 tcp 1040 ------- 0 0.0 1.0 95 173
r 0.93672 0 1 tcp 1040 ------- 0 0.0 1.0 92 167
+ 0.93672 1 0 ack 40 ------- 0 1.0 0.0 92 202
- 0.93672 1 0 ack 40 ------- 0 1.0 0.0 92 202
r 0.93856 1 0 ack 40 ------- 0 1.0 0.0 90 198
+ 0.93856 0 1 tcp 1040 ------- 0 0.0 1.0 110 203
- 0.9392 0 1 tcp 1040 ------- 0 0.0 1.0 96 175
r 0.94088 0 1 tcp 1040 ------- 0 0.0 1.0 93 169
+ 0.94088 1 0 ack 40 ------- 0 1.0 0.0 93 204
- 0.94088 1 0 ack 40 ------- 0 1.0 0.0 93 204
r 0.94272 1 0 ack 40 ------- 0 1.0 0.0 91 200
+ 0.94272 0 1 tcp 1040 ------- 0 0.0 1.0 111 205
- 0.94336 0 1 tcp 1040 ------- 0 0.0 1.0 97 177
r 0.94504 0 1 tcp 1040 ------- 0 0.0 1.0 94 171
+ 0.94504 1 0 ack 40 ------- 0 1.0 0.0 94 206
- 0.94504 1 0 ack 40 ------- 0 1.0 0.0 94 206
r 0.94688 1 0 ack 40 ------- 0 1.0 0.0 92 202
+ 0.94688 0 1 tcp 1040 ------- 0 0.0 1.0 112 207
- 0.94752 0 1 tcp 1040 ------- 0 0.0 1.0 98 179
r 0.9492 0 1 tcp 1040 ------- 0 0.0 1.0 95 173
+ 0.9492 1 0 ack 40 ------- 0 1.0 0.0 95 208
- 0.9492 1 0 ack 40 ------- 0 1.0 0.0 95 208
r 0.95104 1 0 ack 40 ------- 0 1.0 0.0 93 204
+ 0.95104 0 1 tcp 1040 ------- 0 0.0 1.0 113 209
- 0.95168 0 1 tcp 1040 ------- 0 0.0 1.0 99 181
r 0.95336 0 1 tcp 1040 ------- 0 0.0 1.0 96 175
+ 0.95336 1 0 ack 40 ------- 0 1.0 0.0 96 210
- 0.95336 1 0 ack 40 ------- 0 1.0 0.0 96 210
r 0.9552 1 0 ack 40 ------- 0 1.0 0.0 94 206
+ 0.9552 0 1 tcp 1040 ------- 0 0.0 1.0 114 211
- 0.95584 0 1 tcp 1040 ------- 0 0.0 1.0 100 183
r 0.95752 0 1 tcp 1040 ------- 0 0.0 1.0 97 177
+ 0.95752 1 0 ack 40 ------- 0 1.0 0.0 97 212
- 0.95752 1 0 ack 40 ------- 0 1.0 0.0 97 212
r 0.95936 1 0 ack 40 ------- 0 1.0 0.0 95 208
+ 0.95936 0 1 tcp 1040 ------- 0 0.0 1.0 115 213
- 0.96 0 1 tcp 1040 ------- 0 0.0 1.0 101 185
r 0.96168 0 1 tcp 1040 ------- 0 0.0 1.0 98 179
+ 0.96168 1 0 ack 40 ------- 0 1.0 0.0 98 214
- 0.96168 1 0 ack 40 ------- 0 1.0 0.0 98 214
r 0.96352 1 0 ack 40 ------- 0 1.0 0.0 96 210
+ 0.96352 0 1 tcp 1040 ------- 0 0.0 1.0 116 215
- 0.96416 0 1 tcp 1040 ------- 0 0.0 1.0 102 187
r 0.96584 0 1 tcp 1040 ------- 0 0.0 1.0 99 181
+ 0.96584 1 0 ack 40 ------- 0 1.0 0.0 99 216
- 0.96584 1 0 ack 40 ------- 0 1.0 0.0 99 216
r 0.96768 1 0 ack 40 ------- 0 1.0 0.0 97 212
+ 0.96768 0 1 tcp 1040 ------- 0 0.0 1.0 117 217
- 0.96832 0 1 tcp 1040 ------- 0 0.0 1.0 103 189
r 0.97 0 1 tcp 1040 ------- 0 0.0 1.0 100 183
+ 0.97 1 0 ack 40 ------- 0 1.0 0.0 100 218
- 0.97 1 0 ack 40 ------- 0 1.0 0.0 100 218
r 0.97184 1 0 ack 40 ------- 0 1.0 0.0 98 214
+ 0.97184 0 1 tcp 1040 ------- 0 0.0 1.0 118 219
- 0.97248 0 1 tcp 1040 ------- 0 0.0 1.0 104 191
r 0.97416 0 1 tcp 1040 ------- 0 0.0 1.0 101 185
+ 0.97416 1 0 ack 40 ------- 0 1.0 0.0 101 220
- 0.97416 1 0 ack 40 ------- 0 1.0 0.0 101 220
r 0.976 1 0 ack 40 ------- 0 1.0 0.0 99 216
+ 0.976 0 1 tcp 1040 ------- 0 0.0 1.0 119 221
- 0.97664 0 1 tcp 1040 ------- 0 0.0 1.0 105 193
r 0.97832 0 1 tcp 1040 ------- 0 0.0 1.0 102 187
+ 0.97832 1 0 ack 40 ------- 0 1.0 0.0 102 222
- 0.97832 1 0 ack 40 ------- 0 1.0 0.0 102 222
r 0.98016 1 0 ack 40 ------- 0 1.0 0.0 100 218
+ 0.98016 0 1 tcp 1040 ------- 0 0.0 1.0 120 223
- 0.9808 0 1 tcp 1040 ------- 0 0.0 1.0 106 195
r 0.98248 0 1 tcp 1040 ------- 0 0.0 1.0 103 189
+ 0.98248 1 0 ack 40 ------- 0 1.0 0.0 103 224
- 0.98248 1 0 ack 40 ------- 0 1.0 0.0 103 224
r 0.98432 1 0 ack 40 ------- 0 1.0 0.0 101 220
+ 0.98432 0 1 tcp 1040 ------- 0 0.0 1.0 121 225
- 0.98496 0 1 tcp 1040 ------- 0 0.0 1.0 107 197
r 0.98664 0 1 tcp 1040 ------- 0 0.0 1.0 104 191
+ 0.98664 1 0 ack 40 ------- 0 1.0 0.0 104 226
- 0.98664 1 0 ack 40 ------- 0 1.0 0.0 104 226
r 0.98848 1 0 ack 40 ------- 0 1.0 0.0 102 222