+ 0 0 3 tcp 40 ------- 0 0.0 1.0 0 0
- 0 0 3 tcp 40 ------- 0 0.0 1.0 0 0
+ 0 2 3 cbr 500 ------- 0 2.0 3.0 0 1
- 0 2 3 cbr 500 ------- 0 2.0 3.0 0 1
r 0.01032 0 3 tcp 40 ------- 0 0.0 1.0 0 0
+ 0.01032 3 1 tcp 40 ------- 0 0.0 1.0 0 0
- 0.01032 3 1 tcp 40 ------- 0 0.0 1.0 0 0
r 0.02064 3 1 tcp 40 ------- 0 0.0 1.0 0 0
+ 0.02064 1 3 ack 40 ------- 0 1.0 0.0 0 2
- 0.02064 1 3 ack 40 ------- 0 1.0 0.0 0 2
r 0.024 2 3 cbr 500 ------- 0 2.0 3.0 0 1
r 0.03096 1 3 ack 40 ------- 0 1.0 0.0 0 2
+ 0.03096 3 0 ack 40 ------- 0 1.0 0.0 0 2
- 0.03096 3 0 ack 40 ------- 0 1.0 0.0 0 2
r 0.04128 3 0 ack 40 ------- 0 1.0 0.0 0 2
+ 0.04128 0 3 tcp 1040 ------- 0 0.0 1.0 1 3
- 0.04128 0 3 tcp 1040 ------- 0 0.0 1.0 1 3
+ 0.04128 0 3 tcp 1040 ------- 0 0.0 1.0 2 4
- 0.0496 0 3 tcp 1040 ------- 0 0.0 1.0 2 4
+ 0.05 2 3 cbr 500 ------- 0 2.0 3.0 1 5
- 0.05 2 3 cbr 500 ------- 0 2.0 3.0 1 5
r 0.0596 0 3 tcp 1040 ------- 0 0.0 1.0 1 3
+ 0.0596 3 1 tcp 1040 ------- 0 0.0 1.0 1 3
- 0.0596 3 1 tcp 1040 ------- 0 0.0 1.0 1 3
r 0.06792 0 3 tcp 1040 ------- 0 0.0 1.0 2 4
+ 0.06792 3 1 tcp 1040 ------- 0 0.0 1.0 2 4
- 0.06792 3 1 tcp 1040 ------- 0 0.0 1.0 2 4
r 0.074 2 3 cbr 500 ------- 0 2.0 3.0 1 5
r 0.07792 3 1 tcp 1040 ------- 0 0.0 1.0 1 3
+ 0.07792 1 3 ack 40 ------- 0 1.0 0.0 1 6
- 0.07792 1 3 ack 40 ------- 0 1.0 0.0 1 6
r 0.08624 3 1 tcp 1040 ------- 0 0.0 1.0 2 4
+ 0.08624 1 3 ack 40 ------- 0 1.0 0.0 2 7
- 0.08624 1 3 ack 40 ------- 0 1.0 0.0 2 7
r 0.08824 1 3 ack 40 ------- 0 1.0 0.0 1 6
+ 0.08824 3 0 ack 40 ------- 0 1.0 0.0 1 6
- 0.08824 3 0 ack 40 ------- 0 1.0 0.0 1 6
r 0.09656 1 3 ack 40 ------- 0 1.0 0.0 2 7
+ 0.09656 3 0 ack 40 ------- 0 1.0 0.0 2 7
- 0.09656 3 0 ack 40 ------- 0 1.0 0.0 2 7
r 0.09856 3 0 ack 40 ------- 0 1.0 0.0 1 6
+ 0.09856 0 3 tcp 1040 ------- 0 0.0 1.0 3 8
- 0.09856 0 3 tcp 1040 ------- 0 0.0 1.0 3 8
+ 0.09856 0 3 tcp 1040 ------- 0 0.0 1.0 4 9
+ 0.1 2 3 cbr 500 ------- 0 2.0 3.0 2 10
- 0.1 2 3 cbr 500 ------- 0 2.0 3.0 2 10
- 0.10688 0 3 tcp 1040 ------- 0 0.0 1.0 4 9
r 0.10688 3 0 ack 40 ------- 0 1.0 0.0 2 7
+ 0.10688 0 3 tcp 1040 ------- 0 0.0 1.0 5 11
+ 0.10688 0 3 tcp 1040 ------- 0 0.0 1.0 6 12
- 0.1152 0 3 tcp 1040 ------- 0 0.0 1.0 5 11
r 0.11688 0 3 tcp 1040 ------- 0 0.0 1.0 3 8
+ 0.11688 3 1 tcp 1040 ------- 0 0.0 1.0 3 8
- 0.11688 3 1 tcp 1040 ------- 0 0.0 1.0 3 8
- 0.12352 0 3 tcp 1040 ------- 0 0.0 1.0 6 12
r 0.124 2 3 cbr 500 ------- 0 2.0 3.0 2 10
r 0.1252 0 3 tcp 1040 ------- 0 0.0 1.0 4 9
+ 0.1252 3 1 tcp 1040 ------- 0 0.0 1.0 4 9
- 0.1252 3 1 tcp 1040 ------- 0 0.0 1.0 4 9
r 0.13352 0 3 tcp 1040 ------- 0 0.0 1.0 5 11
+ 0.13352 3 1 tcp 1040 ------- 0 0.0 1.0 5 11
- 0.13352 3 1 tcp 1040 ------- 0 0.0 1.0 5 11
r 0.1352 3 1 tcp 1040 ------- 0 0.0 1.0 3 8
+ 0.1352 1 3 ack 40 ------- 0 1.0 0.0 3 13
- 0.1352 1 3 ack 40 ------- 0 1.0 0.0 3 13
r 0.14184 0 3 tcp 1040 ------- 0 0.0 1.0 6 12
+ 0.14184 3 1 tcp 1040 ------- 0 0.0 1.0 6 12
- 0.14184 3 1 tcp 1040 ------- 0 0.0 1.0 6 12
r 0.14352 3 1 tcp 1040 ------- 0 0.0 1.0 4 9
+ 0.14352 1 3 ack 40 ------- 0 1.0 0.0 4 14
- 0.14352 1 3 ack 40 ------- 0 1.0 0.0 4 14
r 0.14552 1 3 ack 40 ------- 0 1.0 0.0 3 13
+ 0.14552 3 0 ack 40 ------- 0 1.0 0.0 3 13
- 0.14552 3 0 ack 40 ------- 0 1.0 0.0 3 13
+ 0.15 2 3 cbr 500 ------- 0 2.0 3.0 3 15
- 0.15 2 3 cbr 500 ------- 0 2.0 3.0 3 15
r 0.15184 3 1 tcp 1040 ------- 0 0.0 1.0 5 11
+ 0.15184 1 3 ack 40 ------- 0 1.0 0.0 5 16
- 0.15184 1 3 ack 40 ------- 0 1.0 0.0 5 16
r 0.15384 1 3 ack 40 ------- 0 1.0 0.0 4 14
+ 0.15384 3 0 ack 40 ------- 0 1.0 0.0 4 14
- 0.15384 3 0 ack 40 ------- 0 1.0 0.0 4 14
r 0.15584 3 0 ack 40 ------- 0 1.0 0.0 3 13
+ 0.15584 0 3 tcp 1040 ------- 0 0.0 1.0 7 17
- 0.15584 0 3 tcp 1040 ------- 0 0.0 1.0 7 17
+ 0.15584 0 3 tcp 1040 ------- 0 0.0 1.0 8 18
r 0.16016 3 1 tcp 1040 ------- 0 0.0 1.0 6 12
+ 0.16016 1 3 ack 40 ------- 0 1.0 0.0 6 19
- 0.16016 1 3 ack 40 ------- 0 1.0 0.0 6 19
r 0.16216 1 3 ack 40 ------- 0 1.0 0.0 5 16
+ 0.16216 3 0 ack 40 ------- 0 1.0 0.0 5 16
- 0.16216 3 0 ack 40 ------- 0 1.0 0.0 5 16
- 0.16416 0 3 tcp 1040 ------- 0 0.0 1.0 8 18
r 0.16416 3 0 ack 40 ------- 0 1.0 0.0 4 14
+ 0.16416 0 3 tcp 1040 ------- 0 0.0 1.0 9 20
+ 0.16416 0 3 tcp 1040 ------- 0 0.0 1.0 10 21
r 0.17048 1 3 ack 40 ------- 0 1.0 0.0 6 19
+ 0.17048 3 0 ack 40 ------- 0 1.0 0.0 6 19
- 0.17048 3 0 ack 40 ------- 0 1.0 0.0 6 19
- 0.17248 0 3 tcp 1040 ------- 0 0.0 1.0 9 20
r 0.17248 3 0 ack 40 ------- 0 1.0 0.0 5 16
+ 0.17248 0 3 tcp 1040 ------- 0 0.0 1.0 11 22
+ 0.17248 0 3 tcp 1040 ------- 0 0.0 1.0 12 23
r 0.174 2 3 cbr 500 ------- 0 2.0 3.0 3 15
r 0.17416 0 3 tcp 1040 ------- 0 0.0 1.0 7 17
+ 0.17416 3 1 tcp 1040 ------- 0 0.0 1.0 7 17
- 0.17416 3 1 tcp 1040 ------- 0 0.0 1.0 7 17
- 0.1808 0 3 tcp 1040 ------- 0 0.0 1.0 10 21
r 0.1808 3 0 ack 40 ------- 0 1.0 0.0 6 19
+ 0.1808 0 3 tcp 1040 ------- 0 0.0 1.0 13 24
+ 0.1808 0 3 tcp 1040 ------- 0 0.0 1.0 14 25
r 0.18248 0 3 tcp 1040 ------- 0 0.0 1.0 8 18
+ 0.18248 3 1 tcp 1040 ------- 0 0.0 1.0 8 18
- 0.18248 3 1 tcp 1040 ------- 0 0.0 1.0 8 18
- 0.18912 0 3 tcp 1040 ------- 0 0.0 1.0 11 22
r 0.1908 0 3 tcp 1040 ------- 0 0.0 1.0 9 20
+ 0.1908 3 1 tcp 1040 ------- 0 0.0 1.0 9 20
- 0.1908 3 1 tcp 1040 ------- 0 0.0 1.0 9 20
r 0.19248 3 1 tcp 1040 ------- 0 0.0 1.0 7 17
+ 0.19248 1 3 ack 40 ------- 0 1.0 0.0 7 26
- 0.19248 1 3 ack 40 ------- 0 1.0 0.0 7 26
- 0.19744 0 3 tcp 1040 ------- 0 0.0 1.0 12 23
r 0.19912 0 3 tcp 1040 ------- 0 0.0 1.0 10 21
+ 0.19912 3 1 tcp 1040 ------- 0 0.0 1.0 10 21
- 0.19912 3 1 tcp 1040 ------- 0 0.0 1.0 10 21
+ 0.2 2 3 cbr 500 ------- 0 2.0 3.0 4 27
- 0.2 2 3 cbr 500 ------- 0 2.0 3.0 4 27
r 0.2008 3 1 tcp 1040 ------- 0 0.0 1.0 8 18
+ 0.2008 1 3 ack 40 ------- 0 1.0 0.0 8 28
- 0.2008 1 3 ack 40 ------- 0 1.0 0.0 8 28
r 0.2028 1 3 ack 40 ------- 0 1.0 0.0 7 26
+ 0.2028 3 0 ack 40 ------- 0 1.0 0.0 7 26
- 0.2028 3 0 ack 40 ------- 0 1.0 0.0 7 26
- 0.20576 0 3 tcp 1040 ------- 0 0.0 1.0 13 24
r 0.20744 0 3 tcp 1040 ------- 0 0.0 1.0 11 22
+ 0.20744 3 1 tcp 1040 ------- 0 0.0 1.0 11 22
- 0.20744 3 1 tcp 1040 ------- 0 0.0 1.0 11 22
r 0.20912 3 1 tcp 1040 ------- 0 0.0 1.0 9 20
+ 0.20912 1 3 ack 40 ------- 0 1.0 0.0 9 29
- 0.20912 1 3 ack 40 ------- 0 1.0 0.0 9 29
r 0.21112 1 3 ack 40 ------- 0 1.0 0.0 8 28
+ 0.21112 3 0 ack 40 ------- 0 1.0 0.0 8 28
- 0.21112 3 0 ack 40 ------- 0 1.0 0.0 8 28
r 0.21312 3 0 ack 40 ------- 0 1.0 0.0 7 26
+ 0.21312 0 3 tcp 1040 ------- 0 0.0 1.0 15 30
+ 0.21312 0 3 tcp 1040 ------- 0 0.0 1.0 16 31
- 0.21408 0 3 tcp 1040 ------- 0 0.0 1.0 14 25
r 0.21576 0 3 tcp 1040 ------- 0 0.0 1.0 12 23
+ 0.21576 3 1 tcp 1040 ------- 0 0.0 1.0 12 23
- 0.21576 3 1 tcp 1040 ------- 0 0.0 1.0 12 23
r 0.21744 3 1 tcp 1040 ------- 0 0.0 1.0 10 21
+ 0.21744 1 3 ack 40 ------- 0 1.0 0.0 10 32
- 0.21744 1 3 ack 40 ------- 0 1.0 0.0 10 32
r 0.21944 1 3 ack 40 ------- 0 1.0 0.0 9 29
+ 0.21944 3 0 ack 40 ------- 0 1.0 0.0 9 29
- 0.21944 3 0 ack 40 ------- 0 1.0 0.0 9 29
r 0.22144 3 0 ack 40 ------- 0 1.0 0.0 8 28
+ 0.22144 0 3 tcp 1040 ------- 0 0.0 1.0 17 33
+ 0.22144 0 3 tcp 1040 ------- 0 0.0 1.0 18 34
- 0.2224 0 3 tcp 1040 ------- 0 0.0 1.0 15 30
r 0.224 2 3 cbr 500 ------- 0 2.0 3.0 4 27
r 0.22408 0 3 tcp 1040 ------- 0 0.0 1.0 13 24
+ 0.22408 3 1 tcp 1040 ------- 0 0.0 1.0 13 24
- 0.22408 3 1 tcp 1040 ------- 0 0.0 1.0 13 24
r 0.22576 3 1 tcp 1040 ------- 0 0.0 1.0 11 22
+ 0.22576 1 3 ack 40 ------- 0 1.0 0.0 11 35
- 0.22576 1 3 ack 40 ------- 0 1.0 0.0 11 35
r 0.22776 1 3 ack 40 ------- 0 1.0 0.0 10 32
+ 0.22776 3 0 ack 40 ------- 0 1.0 0.0 10 32
- 0.22776 3 0 ack 40 ------- 0 1.0 0.0 10 32
r 0.22976 3 0 ack 40 ------- 0 1.0 0.0 9 29
+ 0.22976 0 3 tcp 1040 ------- 0 0.0 1.0 19 36
+ 0.22976 0 3 tcp 1040 ------- 0 0.0 1.0 20 37
- 0.23072 0 3 tcp 1040 ------- 0 0.0 1.0 16 31
r 0.2324 0 3 tcp 1040 ------- 0 0.0 1.0 14 25
+ 0.2324 3 1 tcp 1040 ------- 0 0.0 1.0 14 25
- 0.2324 3 1 tcp 1040 ------- 0 0.0 1.0 14 25
r 0.23408 3 1 tcp 1040 ------- 0 0.0 1.0 12 23
+ 0.23408 1 3 ack 40 ------- 0 1.0 0.0 12 38
- 0.23408 1 3 ack 40 ------- 0 1.0 0.0 12 38
r 0.23608 1 3 ack 40 ------- 0 1.0 0.0 11 35
+ 0.23608 3 0 ack 40 ------- 0 1.0 0.0 11 35
- 0.23608 3 0 ack 40 ------- 0 1.0 0.0 11 35
r 0.23808 3 0 ack 40 ------- 0 1.0 0.0 10 32
+ 0.23808 0 3 tcp 1040 ------- 0 0.0 1.0 21 39
+ 0.23808 0 3 tcp 1040 ------- 0 0.0 1.0 22 40
- 0.23904 0 3 tcp 1040 ------- 0 0.0 1.0 17 33
r 0.24072 0 3 tcp 1040 ------- 0 0.0 1.0 15 30
+ 0.24072 3 1 tcp 1040 ------- 0 0.0 1.0 15 30
- 0.24072 3 1 tcp 1040 ------- 0 0.0 1.0 15 30
r 0.2424 3 1 tcp 1040 ------- 0 0.0 1.0 13 24
+ 0.2424 1 3 ack 40 ------- 0 1.0 0.0 13 41
- 0.2424 1 3 ack 40 ------- 0 1.0 0.0 13 41
r 0.2444 1 3 ack 40 ------- 0 1.0 0.0 12 38
+ 0.2444 3 0 ack 40 ------- 0 1.0 0.0 12 38
- 0.2444 3 0 ack 40 ------- 0 1.0 0.0 12 38
r 0.2464 3 0 ack 40 ------- 0 1.0 0.0 11 35
+ 0.2464 0 3 tcp 1040 ------- 0 0.0 1.0 23 42
+ 0.2464 0 3 tcp 1040 ------- 0 0.0 1.0 24 43
- 0.24736 0 3 tcp 1040 ------- 0 0.0 1.0 18 34
r 0.24904 0 3 tcp 1040 ------- 0 0.0 1.0 16 31
+ 0.24904 3 1 tcp 1040 ------- 0 0.0 1.0 16 31
- 0.24904 3 1 tcp 1040 ------- 0 0.0 1.0 16 31
+ 0.25 2 3 cbr 500 ------- 0 2.0 3.0 5 44
- 0.25 2 3 cbr 500 ------- 0 2.0 3.0 5 44
r 0.25072 3 1 tcp 1040 ------- 0 0.0 1.0 14 25
+ 0.25072 1 3 ack 40 ------- 0 1.0 0.0 14 45
- 0.25072 1 3 ack 40 ------- 0 1.0 0.0 14 45
r 0.25272 1 3 ack 40 ------- 0 1.0 0.0 13 41
+ 0.25272 3 0 ack 40 ------- 0 1.0 0.0 13 41
- 0.25272 3 0 ack 40 ------- 0 1.0 0.0 13 41
r 0.25472 3 0 ack 40 ------- 0 1.0 0.0 12 38
+ 0.25472 0 3 tcp 1040 ------- 0 0.0 1.0 25 46
+ 0.25472 0 3 tcp 1040 ------- 0 0.0 1.0 26 47
- 0.25568 0 3 tcp 1040 ------- 0 0.0 1.0 19 36
r 0.25736 0 3 tcp 1040 ------- 0 0.0 1.0 17 33
+ 0.25736 3 1 tcp 1040 ------- 0 0.0 1.0 17 33
- 0.25736 3 1 tcp 1040 ------- 0 0.0 1.0 17 33
r 0.25904 3 1 tcp 1040 ------- 0 0.0 1.0 15 30
+ 0.25904 1 3 ack 40 ------- 0 1.0 0.0 15 48
- 0.25904 1 3 ack 40 ------- 0 1.0 0.0 15 48
r 0.26104 1 3 ack 40 ------- 0 1.0 0.0 14 45
+ 0.26104 3 0 ack 40 ------- 0 1.0 0.0 14 45
- 0.26104 3 0 ack 40 ------- 0 1.0 0.0 14 45
r 0.26304 3 0 ack 40 ------- 0 1.0 0.0 13 41
+ 0.26304 0 3 tcp 1040 ------- 0 0.0 1.0 27 49
+ 0.26304 0 3 tcp 1040 ------- 0 0.0 1.0 28 50
- 0.264 0 3 tcp 1040 ------- 0 0.0 1.0 20 37
r 0.26568 0 3 tcp 1040 ------- 0 0.0 1.0 18 34
+ 0.26568 3 1 tcp 1040 ------- 0 0.0 1.0 18 34
- 0.26568 3 1 tcp 1040 ------- 0 0.0 1.0 18 34
r 0.26736 3 1 tcp 1040 ------- 0 0.0 1.0 16 31
+ 0.26736 1 3 ack 40 ------- 0 1.0 0.0 16 51
- 0.26736 1 3 ack 40 ------- 0 1.0 0.0 16 51
r 0.26936 1 3 ack 40 ------- 0 1.0 0.0 15 48
+ 0.26936 3 0 ack 40 ------- 0 1.0 0.0 15 48
- 0.26936 3 0 ack 40 ------- 0 1.0 0.0 15 48
r 0.27136 3 0 ack 40 ------- 0 1.0 0.0 14 45
+ 0.27136 0 3 tcp 1040 ------- 0 0.0 1.0 29 52
+ 0.27136 0 3 tcp 1040 ------- 0 0.0 1.0 30 53
- 0.27232 0 3 tcp 1040 ------- 0 0.0 1.0 21 39
r 0.274 0 3 tcp 1040 ------- 0 0.0 1.0 19 36
+ 0.274 3 1 tcp 1040 ------- 0 0.0 1.0 19 36
- 0.274 3 1 tcp 1040 ------- 0 0.0 1.0 19 36
r 0.274 2 3 cbr 500 ------- 0 2.0 3.0 5 44
r 0.27568 3 1 tcp 1040 ------- 0 0.0 1.0 17 33
+ 0.27568 1 3 ack 40 ------- 0 1.0 0.0 17 54
- 0.27568 1 3 ack 40 ------- 0 1.0 0.0 17 54
r 0.27768 1 3 ack 40 ------- 0 1.0 0.0 16 51
+ 0.27768 3 0 ack 40 ------- 0 1.0 0.0 16 51
- 0.27768 3 0 ack 40 ------- 0 1.0 0.0 16 51
r 0.27968 3 0 ack 40 ------- 0 1.0 0.0 15 48
+ 0.27968 0 3 tcp 1040 ------- 0 0.0 1.0 31 55
+ 0.27968 0 3 tcp 1040 ------- 0 0.0 1.0 32 56
- 0.28064 0 3 tcp 1040 ------- 0 0.0 1.0 22 40
r 0.28232 0 3 tcp 1040 ------- 0 0.0 1.0 20 37
+ 0.28232 3 1 tcp 1040 ------- 0 0.0 1.0 20 37
- 0.28232 3 1 tcp 1040 ------- 0 0.0 1.0 20 37
r 0.284 3 1 tcp 1040 ------- 0 0.0 1.0 18 34
+ 0.284 1 3 ack 40 ------- 0 1.0 0.0 18 57
- 0.284 1 3 ack 40 ------- 0 1.0 0.0 18 57
r 0.286 1 3 ack 40 ------- 0 1.0 0.0 17 54
+ 0.286 3 0 ack 40 ------- 0 1.0 0.0 17 54
- 0.286 3 0 ack 40 ------- 0 1.0 0.0 17 54
r 0.288 3 0 ack 40 ------- 0 1.0 0.0 16 51
+ 0.288 0 3 tcp 1040 ------- 0 0.0 1.0 33 58
+ 0.288 0 3 tcp 1040 ------- 0 0.0 1.0 34 59
- 0.28896 0 3 tcp 1040 ------- 0 0.0 1.0 23 42
r 0.29064 0 3 tcp 1040 ------- 0 0.0 1.0 21 39
+ 0.29064 3 1 tcp 1040 ------- 0 0.0 1.0 21 39
- 0.29064 3 1 tcp 1040 ------- 0 0.0 1.0 21 39
r 0.29232 3 1 tcp 1040 ------- 0 0.0 1.0 19 36
+ 0.29232 1 3 ack 40 ------- 0 1.0 0.0 19 60
- 0.29232 1 3 ack 40 ------- 0 1.0 0.0 19 60
r 0.29432 1 3 ack 40 ------- 0 1.0 0.0 18 57
+ 0.29432 3 0 ack 40 ------- 0 1.0 0.0 18 57
- 0.29432 3 0 ack 40 ------- 0 1.0 0.0 18 57
r 0.29632 3 0 ack 40 ------- 0 1.0 0.0 17 54
+ 0.29632 0 3 tcp 1040 ------- 0 0.0 1.0 35 61
+ 0.29632 0 3 tcp 1040 ------- 0 0.0 1.0 36 62
- 0.29728 0 3 tcp 1040 ------- 0 0.0 1.0 24 43
r 0.29896 0 3 tcp 1040 ------- 0 0.0 1.0 22 40
+ 0.29896 3 1 tcp 1040 ------- 0 0.0 1.0 22 40
- 0.29896 3 1 tcp 1040 ------- 0 0.0 1.0 22 40
+ 0.3 2 3 cbr 500 ------- 0 2.0 3.0 6 63
- 0.3 2 3 cbr 500 ------- 0 2.0 3.0 6 63
r 0.30064 3 1 tcp 1040 ------- 0 0.0 1.0 20 37
+ 0.30064 1 3 ack 40 ------- 0 1.0 0.0 20 64
- 0.30064 1 3 ack 40 ------- 0 1.0 0.0 20 64
r 0.30264 1 3 ack 40 ------- 0 1.0 0.0 19 60
+ 0.30264 3 0 ack 40 ------- 0 1.0 0.0 19 60
- 0.30264 3 0 ack 40 ------- 0 1.0 0.0 19 60
r 0.30464 3 0 ack 40 ------- 0 1.0 0.0 18 57
+ 0.30464 0 3 tcp 1040 ------- 0 0.0 1.0 37 65
+ 0.30464 0 3 tcp 1040 ------- 0 0.0 1.0 38 66
- 0.3056 0 3 tcp 1040 ------- 0 0.0 1.0 25 46
r 0.30728 0 3 tcp 1040 ------- 0 0.0 1.0 23 42
+ 0.30728 3 1 tcp 1040 ------- 0 0.0 1.0 23 42
- 0.30728 3 1 tcp 1040 ------- 0 0.0 1.0 23 42
r 0.30896 3 1 tcp 1040 ------- 0 0.0 1.0 21 39
+ 0.30896 1 3 ack 40 ------- 0 1.0 0.0 21 67
- 0.30896 1 3 ack 40 ------- 0 1.0 0.0 21 67
r 0.31096 1 3 ack 40 ------- 0 1.0 0.0 20 64
+ 0.31096 3 0 ack 40 ------- 0 1.0 0.0 20 64
- 0.31096 3 0 ack 40 ------- 0 1.0 0.0 20 64
r 0.31296 3 0 ack 40 ------- 0 1.0 0.0 19 60
+ 0.31296 0 3 tcp 1040 ------- 0 0.0 1.0 39 68
- 0.31392 0 3 tcp 1040 ------- 0 0.0 1.0 26 47
r 0.3156 0 3 tcp 1040 ------- 0 0.0 1.0 24 43
+ 0.3156 3 1 tcp 1040 ------- 0 0.0 1.0 24 43
- 0.3156 3 1 tcp 1040 ------- 0 0.0 1.0 24 43
r 0.31728 3 1 tcp 1040 ------- 0 0.0 1.0 22 40
+ 0.31728 1 3 ack 40 ------- 0 1.0 0.0 22 69
- 0.31728 1 3 ack 40 ------- 0 1.0 0.0 22 69
r 0.31928 1 3 ack 40 ------- 0 1.0 0.0 21 67
+ 0.31928 3 0 ack 40 ------- 0 1.0 0.0 21 67
- 0.31928 3 0 ack 40 ------- 0 1.0 0.0 21 67
r 0.32128 3 0 ack 40 ------- 0 1.0 0.0 20 64
+ 0.32128 0 3 tcp 1040 ------- 0 0.0 1.0 40 70
- 0.32224 0 3 tcp 1040 ------- 0 0.0 1.0 27 49
r 0.32392 0 3 tcp 1040 ------- 0 0.0 1.0 25 46
+ 0.32392 3 1 tcp 1040 ------- 0 0.0 1.0 25 46
- 0.32392 3 1 tcp 1040 ------- 0 0.0 1.0 25 46
r 0.324 2 3 cbr 500 ------- 0 2.0 3.0 6 63
r 0.3256 3 1 tcp 1040 ------- 0 0.0 1.0 23 42
+ 0.3256 1 3 ack 40 ------- 0 1.0 0.0 23 71
- 0.3256 1 3 ack 40 ------- 0 1.0 0.0 23 71
r 0.3276 1 3 ack 40 ------- 0 1.0 0.0 22 69
+ 0.3276 3 0 ack 40 ------- 0 1.0 0.0 22 69
- 0.3276 3 0 ack 40 ------- 0 1.0 0.0 22 69
r 0.3296 3 0 ack 40 ------- 0 1.0 0.0 21 67
+ 0.3296 0 3 tcp 1040 ------- 0 0.0 1.0 41 72
- 0.33056 0 3 tcp 1040 ------- 0 0.0 1.0 28 50
r 0.33224 0 3 tcp 1040 ------- 0 0.0 1.0 26 47
+ 0.33224 3 1 tcp 1040 ------- 0 0.0 1.0 26 47
- 0.33224 3 1 tcp 1040 ------- 0 0.0 1.0 26 47
r 0.33392 3 1 tcp 1040 ------- 0 0.0 1.0 24 43
+ 0.33392 1 3 ack 40 ------- 0 1.0 0.0 24 73
- 0.33392 1 3 ack 40 ------- 0 1.0 0.0 24 73
r 0.33592 1 3 ack 40 ------- 0 1.0 0.0 23 71
+ 0.33592 3 0 ack 40 ------- 0 1.0 0.0 23 71
- 0.33592 3 0 ack 40 ------- 0 1.0 0.0 23 71
r 0.33792 3 0 ack 40 ------- 0 1.0 0.0 22 69
+ 0.33792 0 3 tcp 1040 ------- 0 0.0 1.0 42 74
- 0.33888 0 3 tcp 1040 ------- 0 0.0 1.0 29 52
r 0.34056 0 3 tcp 1040 ------- 0 0.0 1.0 27 49
+ 0.34056 3 1 tcp 1040 ------- 0 0.0 1.0 27 49
- 0.34056 3 1 tcp 1040 ------- 0 0.0 1.0 27 49
r 0.34224 3 1 tcp 1040 ------- 0 0.0 1.0 25 46
+ 0.34224 1 3 ack 40 ------- 0 1.0 0.0 25 75
- 0.34224 1 3 ack 40 ------- 0 1.0 0.0 25 75
r 0.34424 1 3 ack 40 ------- 0 1.0 0.0 24 73
+ 0.34424 3 0 ack 40 ------- 0 1.0 0.0 24 73
- 0.34424 3 0 ack 40 ------- 0 1.0 0.0 24 73
r 0.34624 3 0 ack 40 ------- 0 1.0 0.0 23 71
+ 0.34624 0 3 tcp 1040 ------- 0 0.0 1.0 43 76
- 0.3472 0 3 tcp 1040 ------- 0 0.0 1.0 30 53
r 0.34888 0 3 tcp 1040 ------- 0 0.0 1.0 28 50
+ 0.34888 3 1 tcp 1040 ------- 0 0.0 1.0 28 50
- 0.34888 3 1 tcp 1040 ------- 0 0.0 1.0 28 50
+ 0.35 2 3 cbr 500 ------- 0 2.0 3.0 7 77
- 0.35 2 3 cbr 500 ------- 0 2.0 3.0 7 77
r 0.35056 3 1 tcp 1040 ------- 0 0.0 1.0 26 47
+ 0.35056 1 3 ack 40 ------- 0 1.0 0.0 26 78
- 0.35056 1 3 ack 40 ------- 0 1.0 0.0 26 78
r 0.35256 1 3 ack 40 ------- 0 1.0 0.0 25 75
+ 0.35256 3 0 ack 40 ------- 0 1.0 0.0 25 75
- 0.35256 3 0 ack 40 ------- 0 1.0 0.0 25 75
r 0.35456 3 0 ack 40 ------- 0 1.0 0.0 24 73
+ 0.35456 0 3 tcp 1040 ------- 0 0.0 1.0 44 79
- 0.35552 0 3 tcp 1040 ------- 0 0.0 1.0 31 55
r 0.3572 0 3 tcp 1040 ------- 0 0.0 1.0 29 52
+ 0.3572 3 1 tcp 1040 ------- 0 0.0 1.0 29 52
- 0.3572 3 1 tcp 1040 ------- 0 0.0 1.0 29 52
r 0.35888 3 1 tcp 1040 ------- 0 0.0 1.0 27 49
+ 0.35888 1 3 ack 40 ------- 0 1.0 0.0 27 80
- 0.35888 1 3 ack 40 ------- 0 1.0 0.0 27 80
r 0.36088 1 3 ack 40 ------- 0 1.0 0.0 26 78
+ 0.36088 3 0 ack 40 ------- 0 1.0 0.0 26 78
- 0.36088 3 0 ack 40 ------- 0 1.0 0.0 26 78
r 0.36288 3 0 ack 40 ------- 0 1.0 0.0 25 75
+ 0.36288 0 3 tcp 1040 ------- 0 0.0 1.0 45 81
- 0.36384 0 3 tcp 1040 ------- 0 0.0 1.0 32 56
r 0.36552 0 3 tcp 1040 ------- 0 0.0 1.0 30 53
+ 0.36552 3 1 tcp 1040 ------- 0 0.0 1.0 30 53
- 0.36552 3 1 tcp 1040 ------- 0 0.0 1.0 30 53
r 0.3672 3 1 tcp 1040 ------- 0 0.0 1.0 28 50
+ 0.3672 1 3 ack 40 ------- 0 1.0 0.0 28 82
- 0.3672 1 3 ack 40 ------- 0 1.0 0.0 28 82
r 0.3692 1 3 ack 40 ------- 0 1.0 0.0 27 80
+ 0.3692 3 0 ack 40 ------- 0 1.0 0.0 27 80
- 0.3692 3 0 ack 40 ------- 0 1.0 0.0 27 80
r 0.3712 3 0 ack 40 ------- 0 1.0 0.0 26 78
+ 0.3712 0 3 tcp 1040 ------- 0 0.0 1.0 46 83
- 0.37216 0 3 tcp 1040 ------- 0 0.0 1.0 33 58
r 0.37384 0 3 tcp 1040 ------- 0 0.0 1.0 31 55
+ 0.37384 3 1 tcp 1040 ------- 0 0.0 1.0 31 55
- 0.37384 3 1 tcp 1040 ------- 0 0.0 1.0 31 55
r 0.374 2 3 cbr 500 ------- 0 2.0 3.0 7 77
r 0.37552 3 1 tcp 1040 ------- 0 0.0 1.0 29 52
+ 0.37552 1 3 ack 40 ------- 0 1.0 0.0 29 84
- 0.37552 1 3 ack 40 ------- 0 1.0 0.0 29 84
r 0.37752 1 3 ack 40 ------- 0 1.0 0.0 28 82
+ 0.37752 3 0 ack 40 ------- 0 1.0 0.0 28 82
- 0.37752 3 0 ack 40 ------- 0 1.0 0.0 28 82
r 0.37952 3 0 ack 40 ------- 0 1.0 0.0 27 80
+ 0.37952 0 3 tcp 1040 ------- 0 0.0 1.0 47 85
- 0.38048 0 3 tcp 1040 ------- 0 0.0 1.0 34 59
r 0.38216 0 3 tcp 1040 ------- 0 0.0 1.0 32 56
+ 0.38216 3 1 tcp 1040 ------- 0 0.0 1.0 32 56
- 0.38216 3 1 tcp 1040 ------- 0 0.0 1.0 32 56
r 0.38384 3 1 tcp 1040 ------- 0 0.0 1.0 30 53
+ 0.38384 1 3 ack 40 ------- 0 1.0 0.0 30 86
- 0.38384 1 3 ack 40 ------- 0 1.0 0.0 30 86
r 0.38584 1 3 ack 40 ------- 0 1.0 0.0 29 84
+ 0.38584 3 0 ack 40 ------- 0 1.0 0.0 29 84
- 0.38584 3 0 ack 40 ------- 0 1.0 0.0 29 84
r 0.38784 3 0 ack 40 ------- 0 1.0 0.0 28 82
+ 0.38784 0 3 tcp 1040 ------- 0 0.0 1.0 48 87
- 0.3888 0 3 tcp 1040 ------- 0 0.0 1.0 35 61
r 0.39048 0 3 tcp 1040 ------- 0 0.0 1.0 33 58
+ 0.39048 3 1 tcp 1040 ------- 0 0.0 1.0 33 58
- 0.39048 3 1 tcp 1040 ------- 0 0.0 1.0 33 58
r 0.39216 3 1 tcp 1040 ------- 0 0.0 1.0 31 55
+ 0.39216 1 3 ack 40 ------- 0 1.0 0.0 31 88
- 0.39216 1 3 ack 40 ------- 0 1.0 0.0 31 88
r 0.39416 1 3 ack 40 ------- 0 1.0 0.0 30 86
+ 0.39416 3 0 ack 40 ------- 0 1.0 0.0 30 86
- 0.39416 3 0 ack 40 ------- 0 1.0 0.0 30 86
r 0.39616 3 0 ack 40 ------- 0 1.0 0.0 29 84
+ 0.39616 0 3 tcp 1040 ------- 0 0.0 1.0 49 89
- 0.39712 0 3 tcp 1040 ------- 0 0.0 1.0 36 62
r 0.3988 0 3 tcp 1040 ------- 0 0.0 1.0 34 59
+ 0.3988 3 1 tcp 1040 ------- 0 0.0 1.0 34 59
- 0.3988 3 1 tcp 1040 ------- 0 0.0 1.0 34 59
+ 0.4 2 3 cbr 500 ------- 0 2.0 3.0 8 90
- 0.4 2 3 cbr 500 ------- 0 2.0 3.0 8 90
r 0.40048 3 1 tcp 1040 ------- 0 0.0 1.0 32 56
+ 0.40048 1 3 ack 40 ------- 0 1.0 0.0 32 91
- 0.40048 1 3 ack 40 ------- 0 1.0 0.0 32 91
r 0.40248 1 3 ack 40 ------- 0 1.0 0.0 31 88
+ 0.40248 3 0 ack 40 ------- 0 1.0 0.0 31 88
- 0.40248 3 0 ack 40 ------- 0 1.0 0.0 31 88
r 0.40448 3 0 ack 40 ------- 0 1.0 0.0 30 86
+ 0.40448 0 3 tcp 1040 ------- 0 0.0 1.0 50 92
- 0.40544 0 3 tcp 1040 ------- 0 0.0 1.0 37 65
r 0.40712 0 3 tcp 1040 ------- 0 0.0 1.0 35 61
+ 0.40712 3 1 tcp 1040 ------- 0 0.0 1.0 35 61
- 0.40712 3 1 tcp 1040 ------- 0 0.0 1.0 35 61
r 0.4088 3 1 tcp 1040 ------- 0 0.0 1.0 33 58
+ 0.4088 1 3 ack 40 ------- 0 1.0 0.0 33 93
- 0.4088 1 3 ack 40 ------- 0 1.0 0.0 33 93
r 0.4108 1 3 ack 40 ------- 0 1.0 0.0 32 91
+ 0.4108 3 0 ack 40 ------- 0 1.0 0.0 32 91
- 0.4108 3 0 ack 40 ------- 0 1.0 0.0 32 91
r 0.4128 3 0 ack 40 ------- 0 1.0 0.0 31 88
+ 0.4128 0 3 tcp 1040 ------- 0 0.0 1.0 51 94
- 0.41376 0 3 tcp 1040 ------- 0 0.0 1.0 38 66
r 0.41544 0 3 tcp 1040 ------- 0 0.0 1.0 36 62
+ 0.41544 3 1 tcp 1040 ------- 0 0.0 1.0 36 62
- 0.41544 3 1 tcp 1040 ------- 0 0.0 1.0 36 62
r 0.41712 3 1 tcp 1040 ------- 0 0.0 1.0 34 59
+ 0.41712 1 3 ack 40 ------- 0 1.0 0.0 34 95
- 0.41712 1 3 ack 40 ------- 0 1.0 0.0 34 95
r 0.41912 1 3 ack 40 ------- 0 1.0 0.0 33 93
+ 0.41912 3 0 ack 40 ------- 0 1.0 0.0 33 93
- 0.41912 3 0 ack 40 ------- 0 1.0 0.0 33 93
r 0.42112 3 0 ack 40 ------- 0 1.0 0.0 32 91
+ 0.42112 0 3 tcp 1040 ------- 0 0.0 1.0 52 96
- 0.42208 0 3 tcp 1040 ------- 0 0.0 1.0 39 68
r 0.42376 0 3 tcp 1040 ------- 0 0.0 1.0 37 65
+ 0.42376 3 1 tcp 1040 ------- 0 0.0 1.0 37 65
- 0.42376 3 1 tcp 1040 ------- 0 0.0 1.0 37 65
r 0.424 2 3 cbr 500 ------- 0 2.0 3.0 8 90
r 0.42544 3 1 tcp 1040 ------- 0 0.0 1.0 35 61
+ 0.42544 1 3 ack 40 ------- 0 1.0 0.0 35 97
- 0.42544 1 3 ack 40 ------- 0 1.0 0.0 35 97
r 0.42744 1 3 ack 40 ------- 0 1.0 0.0 34 95
+ 0.42744 3 0 ack 40 ------- 0 1.0 0.0 34 95
- 0.42744 3 0 ack 40 ------- 0 1.0 0.0 34 95
r 0.42944 3 0 ack 40 ------- 0 1.0 0.0 33 93
+ 0.42944 0 3 tcp 1040 ------- 0 0.0 1.0 53 98
- 0.4304 0 3 tcp 1040 ------- 0 0.0 1.0 40 70
r 0.43208 0 3 tcp 1040 ------- 0 0.0 1.0 38 66
+ 0.43208 3 1 tcp 1040 ------- 0 0.0 1.0 38 66
- 0.43208 3 1 tcp 1040 ------- 0 0.0 1.0 38 66
r 0.43376 3 1 tcp 1040 ------- 0 0.0 1.0 36 62
+ 0.43376 1 3 ack 40 ------- 0 1.0 0.0 36 99
- 0.43376 1 3 ack 40 ------- 0 1.0 0.0 36 99
r 0.43576 1 3 ack 40 ------- 0 1.0 0.0 35 97
+ 0.43576 3 0 ack 40 ------- 0 1.0 0.0 35 97
- 0.43576 3 0 ack 40 ------- 0 1.0 0.0 35 97
r 0.43776 3 0 ack 40 ------- 0 1.0 0.0 34 95
+ 0.43776 0 3 tcp 1040 ------- 0 0.0 1.0 54 100
- 0.43872 0 3 tcp 1040 ------- 0 0.0 1.0 41 72
r 0.4404 0 3 tcp 1040 ------- 0 0.0 1.0 39 68
+ 0.4404 3 1 tcp 1040 ------- 0 0.0 1.0 39 68
- 0.4404 3 1 tcp 1040 ------- 0 0.0 1.0 39 68
r 0.44208 3 1 tcp 1040 ------- 0 0.0 1.0 37 65
+ 0.44208 1 3 ack 40 ------- 0 1.0 0.0 37 101
- 0.44208 1 3 ack 40 ------- 0 1.0 0.0 37 101
r 0.44408 1 3 ack 40 ------- 0 1.0 0.0 36 99
+ 0.44408 3 0 ack 40 ------- 0 1.0 0.0 36 99
- 0.44408 3 0 ack 40 ------- 0 1.0 0.0 36 99
r 0.44608 3 0 ack 40 ------- 0 1.0 0.0 35 97
+ 0.44608 0 3 tcp 1040 ------- 0 0.0 1.0 55 102
- 0.44704 0 3 tcp 1040 ------- 0 0.0 1.0 42 74
r 0.44872 0 3 tcp 1040 ------- 0 0.0 1.0 40 70
+ 0.44872 3 1 tcp 1040 ------- 0 0.0 1.0 40 70
- 0.44872 3 1 tcp 1040 ------- 0 0.0 1.0 40 70
+ 0.45 2 3 cbr 500 ------- 0 2.0 3.0 9 103
- 0.45 2 3 cbr 500 ------- 0 2.0 3.0 9 103
r 0.4504 3 1 tcp 1040 ------- 0 0.0 1.0 38 66
+ 0.4504 1 3 ack 40 ------- 0 1.0 0.0 38 104
- 0.4504 1 3 ack 40 ------- 0 1.0 0.0 38 104
r 0.4524 1 3 ack 40 ------- 0 1.0 0.0 37 101
+ 0.4524 3 0 ack 40 ------- 0 1.0 0.0 37 101
- 0.4524 3 0 ack 40 ------- 0 1.0 0.0 37 101
r 0.4544 3 0 ack 40 ------- 0 1.0 0.0 36 99
+ 0.4544 0 3 tcp 1040 ------- 0 0.0 1.0 56 105
- 0.45536 0 3 tcp 1040 ------- 0 0.0 1.0 43 76
r 0.45704 0 3 tcp 1040 ------- 0 0.0 1.0 41 72
+ 0.45704 3 1 tcp 1040 ------- 0 0.0 1.0 41 72
- 0.45704 3 1 tcp 1040 ------- 0 0.0 1.0 41 72
r 0.45872 3 1 tcp 1040 ------- 0 0.0 1.0 39 68
+ 0.45872 1 3 ack 40 ------- 0 1.0 0.0 39 106
- 0.45872 1 3 ack 40 ------- 0 1.0 0.0 39 106
r 0.46072 1 3 ack 40 ------- 0 1.0 0.0 38 104
+ 0.46072 3 0 ack 40 ------- 0 1.0 0.0 38 104
- 0.46072 3 0 ack 40 ------- 0 1.0 0.0 38 104
r 0.46272 3 0 ack 40 ------- 0 1.0 0.0 37 101
+ 0.46272 0 3 tcp 1040 ------- 0 0.0 1.0 57 107
- 0.46368 0 3 tcp 1040 ------- 0 0.0 1.0 44 79
r 0.46536 0 3 tcp 1040 ------- 0 0.0 1.0 42 74
+ 0.46536 3 1 tcp 1040 ------- 0 0.0 1.0 42 74
- 0.46536 3 1 tcp 1040 ------- 0 0.0 1.0 42 74
r 0.46704 3 1 tcp 1040 ------- 0 0.0 1.0 40 70
+ 0.46704 1 3 ack 40 ------- 0 1.0 0.0 40 108
- 0.46704 1 3 ack 40 ------- 0 1.0 0.0 40 108
r 0.46904 1 3 ack 40 ------- 0 1.0 0.0 39 106
+ 0.46904 3 0 ack 40 ------- 0 1.0 0.0 39 106
- 0.46904 3 0 ack 40 ------- 0 1.0 0.0 39 106
r 0.47104 3 0 ack 40 ------- 0 1.0 0.0 38 104
+ 0.47104 0 3 tcp 1040 ------- 0 0.0 1.0 58 109
- 0.472 0 3 tcp 1040 ------- 0 0.0 1.0 45 81
r 0.47368 0 3 tcp 1040 ------- 0 0.0 1.0 43 76
+ 0.47368 3 1 tcp 1040 ------- 0 0.0 1.0 43 76
- 0.47368 3 1 tcp 1040 ------- 0 0.0 1.0 43 76
r 0.474 2 3 cbr 500 ------- 0 2.0 3.0 9 103
r 0.47536 3 1 tcp 1040 ------- 0 0.0 1.0 41 72
+ 0.47536 1 3 ack 40 ------- 0 1.0 0.0 41 110
- 0.47536 1 3 ack 40 ------- 0 1.0 0.0 41 110
r 0.47736 1 3 ack 40 ------- 0 1.0 0.0 40 108
+ 0.47736 3 0 ack 40 ------- 0 1.0 0.0 40 108
- 0.47736 3 0 ack 40 ------- 0 1.0 0.0 40 108
r 0.47936 3 0 ack 40 ------- 0 1.0 0.0 39 106
+ 0.47936 0 3 tcp 1040 ------- 0 0.0 1.0 59 111
- 0.48032 0 3 tcp 1040 ------- 0 0.0 1.0 46 83
r 0.482 0 3 tcp 1040 ------- 0 0.0 1.0 44 79
+ 0.482 3 1 tcp 1040 ------- 0 0.0 1.0 44 79
- 0.482 3 1 tcp 1040 ------- 0 0.0 1.0 44 79
r 0.48368 3 1 tcp 1040 ------- 0 0.0 1.0 42 74
+ 0.48368 1 3 ack 40 ------- 0 1.0 0.0 42 112
- 0.48368 1 3 ack 40 ------- 0 1.0 0.0 42 112
r 0.48568 1 3 ack 40 ------- 0 1.0 0.0 41 110
+ 0.48568 3 0 ack 40 ------- 0 1.0 0.0 41 110
- 0.48568 3 0 ack 40 ------- 0 1.0 0.0 41 110
r 0.48768 3 0 ack 40 ------- 0 1.0 0.0 40 108
+ 0.48768 0 3 tcp 1040 ------- 0 0.0 1.0 60 113
- 0.48864 0 3 tcp 1040 ------- 0 0.0 1.0 47 85
r 0.49032 0 3 tcp 1040 ------- 0 0.0 1.0 45 81
+ 0.49032 3 1 tcp 1040 ------- 0 0.0 1.0 45 81
- 0.49032 3 1 tcp 1040 ------- 0 0.0 1.0 45 81
r 0.492 3 1 tcp 1040 ------- 0 0.0 1.0 43 76
+ 0.492 1 3 ack 40 ------- 0 1.0 0.0 43 114
- 0.492 1 3 ack 40 ------- 0 1.0 0.0 43 114
r 0.494 1 3 ack 40 ------- 0 1.0 0.0 42 112
+ 0.494 3 0 ack 40 ------- 0 1.0 0.0 42 112
- 0.494 3 0 ack 40 ------- 0 1.0 0.0 42 112
r 0.496 3 0 ack 40 ------- 0 1.0 0.0 41 110
+ 0.496 0 3 tcp 1040 ------- 0 0.0 1.0 61 115
- 0.49696 0 3 tcp 1040 ------- 0 0.0 1.0 48 87
r 0.49864 0 3 tcp 1040 ------- 0 0.0 1.0 46 83
+ 0.49864 3 1 tcp 1040 ------- 0 0.0 1.0 46 83
- 0.49864 3 1 tcp 1040 ------- 0 0.0 1.0 46 83
+ 0.5 2 3 cbr 500 ------- 0 2.0 3.0 10 116
- 0.5 2 3 cbr 500 ------- 0 2.0 3.0 10 116
